                  Welcome to Q-Chem
     A Quantum Leap Into The Future Of Chemistry


 Q-Chem 5.3 (devel), Q-Chem, Inc., Pleasanton, CA (2020)

 Yihan Shao,  Zhengting Gan,  E. Epifanovsky,  A. T. B. Gilbert,  M. Wormit,  
 J. Kussmann,  A. W. Lange,  A. Behn,  Jia Deng,  Xintian Feng,  D. Ghosh,  
 M. Goldey,  P. R. Horn,  L. D. Jacobson,  I. Kaliman,  T. Kus,  A. Landau,  
 Jie Liu,  E. I. Proynov,  R. M. Richard,  R. P. Steele,  E. J. Sundstrom,  
 H. L. Woodcock III,  P. M. Zimmerman,  D. Zuev,  B. Alam,  B. Albrecht,  
 E. Alguire,  S. A. Baeppler,  D. Barton,  Z. Benda,  Y. A. Bernard,  
 E. J. Berquist,  K. B. Bravaya,  H. Burton,  K. Carter-Fenk,  D. Casanova,  
 Chun-Min Chang,  Yunqing Chen,  A. Chien,  K. D. Closser,  M. P. Coons,  
 S. Coriani,  S. Dasgupta,  A. L. Dempwolff,  M. Diedenhofen,  Hainam Do,  
 R. G. Edgar,  Po-Tung Fang,  S. Faraji,  S. Fatehi,  Qingguo Feng,  
 J. Fosso-Tande,  J. Gayvert,  Qinghui Ge,  A. Ghysels,  G. Gidofalvi,  
 J. Gomes,  J. Gonthier,  A. Gunina,  D. Hait,  M. W. D. Hanson-Heine,  
 P. H. P. Harbach,  A. W. Hauser,  M. F. Herbst,  J. E. Herr,  
 E. G. Hohenstein,  Z. C. Holden,  Kerwin Hui,  B. C. Huynh,  T.-C. Jagau,  
 Hyunjun Ji,  B. Kaduk,  K. Khistyaev,  Jaehoon Kim,  P. Klunzinger,  K. Koh,  
 D. Kosenkov,  L. Koulias,  T. Kowalczyk,  C. M. Krauter,  A. Kunitsa,  
 Ka Un Lao,  A. Laurent,  K. V. Lawler,  Joonho Lee,  D. Lefrancois,  
 S. Lehtola,  D. S. Levine,  Yi-Pei Li,  You-Sheng Lin,  Fenglai Liu,  
 Kuan-Yu Liu,  E. Livshits,  M. Loipersberger,  A. Luenser,  P. Manohar,  
 E. Mansoor,  S. F. Manzer,  Shan-Ping Mao,  Yuezhi Mao,  N. Mardirossian,  
 A. V. Marenich,  T. Markovich,  L. A. Martinez-Martinez,  S. A. Maurer,  
 N. J. Mayhall,  S. C. McKenzie,  J.-M. Mewes,  P. Morgante,  A. F. Morrison,  
 J. W. Mullinax,  K. Nanda,  T. S. Nguyen-Beck,  R. Olivares-Amaya,  
 K. J. Oosterbaan,  J. A. Parkhill,  S. K. Paul,  F. Pavosevic,  Zheng Pei,  
 T. M. Perrine,  F. Plasser,  P. Pokhilko,  S. Prager,  A. Prociuk,  
 E. Ramos,  B. Rana,  D. R. Rehn,  F. Rob,  M. Scheurer,  M. Schneider,  
 N. Sergueev,  S. M. Sharada,  S. Sharma,  D. W. Small,  T. Stauch,  
 C. J. Stein,  T. Stein,  Yu-Chuan Su,  S. P. Veccham,  Zhen Tao,  
 A. J. W. Thom,  A. Tkatchenko,  T. Tsuchimochi,  N. M. Tubman,  L. Vogt,  
 M. L. Vidal,  O. Vydrov,  M. A. Watson,  J. Wenzel,  M. de Wergifosse,  
 T. A. Wesolowski,  A. White,  J. Witte,  A. Yamada,  Jun Yang,  K. Yao,  
 S. Yeganeh,  S. R. Yost,  Zhi-Qiang You,  A. Zech,  Igor Ying Zhang,  
 Xing Zhang,  Yan Zhao,  Ying Zhu,  B. R. Brooks,  G. K. L. Chan,  
 C. J. Cramer,  M. S. Gordon,  W. J. Hehre,  A. Klamt,  M. W. Schmidt,  
 C. D. Sherrill,  D. G. Truhlar,  A. Aspuru-Guzik,  R. Baer,  A. T. Bell,  
 N. A. Besley,  Jeng-Da Chai,  A. E. DePrince, III,  R. A. DiStasio Jr.,  
 A. Dreuw,  B. D. Dunietz,  T. R. Furlani,  Chao-Ping Hsu,  Yousung Jung,  
 Jing Kong,  D. S. Lambrecht,  WanZhen Liang,  C. Ochsenfeld,  
 V. A. Rassolov,  L. V. Slipchenko,  J. E. Subotnik,  T. Van Voorhis,  
 J. M. Herbert,  A. I. Krylov,  P. M. W. Gill,  M. Head-Gordon

 Contributors to earlier versions of Q-Chem not listed above: 
 R. D. Adamson,  B. Austin,  J. Baker,  G. J. O. Beran,  K. Brandhorst,  
 S. T. Brown,  E. F. C. Byrd,  A. K. Chakraborty,  C.-L. Cheng,  
 Siu Hung Chien,  D. M. Chipman,  D. L. Crittenden,  H. Dachsel,  
 R. J. Doerksen,  A. D. Dutoi,  L. Fusti-Molnar,  W. A. Goddard III,  
 A. Golubeva-Zadorozhnaya,  S. R. Gwaltney,  G. Hawkins,  A. Heyden,  
 S. Hirata,  G. Kedziora,  F. J. Keil,  C. Kelley,  Jihan Kim,  R. A. King,  
 R. Z. Khaliullin,  P. P. Korambath,  W. Kurlancheek,  A. M. Lee,  M. S. Lee,  
 S. V. Levchenko,  Ching Yeh Lin,  D. Liotard,  R. C. Lochan,  I. Lotan,  
 P. E. Maslen,  N. Nair,  D. P. O'Neill,  D. Neuhauser,  E. Neuscamman,  
 C. M. Oana,  R. Olson,  B. Peters,  R. Peverati,  P. A. Pieniazek,  
 Y. M. Rhee,  J. Ritchie,  M. A. Rohrdanz,  E. Rosta,  N. J. Russ,  
 H. F. Schaefer III,  N. E. Schultz,  N. Shenvi,  A. C. Simmonett,  A. Sodt,  
 D. Stuck,  K. S. Thanthiriwatte,  V. Vanovschi,  Tao Wang,  A. Warshel,  
 C. F. Williams,  Q. Wu,  X. Xu,  W. Zhang

 Please cite Q-Chem as follows:
 Y. Shao et al., Mol. Phys. 113, 184-215 (2015)
 DOI: 10.1080/00268976.2014.952696

 Q-Chem 5.3.0 for Intel X86 EM64T Linux

 Parts of Q-Chem use Armadillo 9.800.1 (Horizon Scraper).
 http://arma.sourceforge.net/

 Q-Chem begins on Mon Jul 13 15:03:51 2020  

Host: centos77-c5
0

     Scratch files written to /tmp/29025.centos77-h1/qchem129161//
Processing $rem in /opt/qchem-5.3.0-intel2020u1//config/preferences:
Processing $rem in /home/shihchengli/.qchemrc:

Checking the input file for inconsistencies... 	...done.

--------------------------------------------------------------
User input:
--------------------------------------------------------------
$rem
   JOBTYPE  sp
   EXCHANGE   omegaB97X-D
   BASIS   6-311+G(2df,2pd)
   UNRESTRICTED   True
   max_scf_cycles   250
   geom_opt_max_cycles   1500
   basis2 6-31G*
   scf_algorithm rca_diis
   SYM_IGNORE  TRUE
   print_input   true
   geom_opt_dmax   80
   pop_mulliken false
   XC_GRID 000075000302
$end

$molecule
0 3
N       0.7895132840     1.1605419268     2.4550803845
O       -0.0398570503     2.0142863123     2.4437154275
O       1.9466296302     1.1820270873     2.7021421171
N       0.0313440725     -1.0710262676     3.3960318929
O       -0.9650281433     -1.1175795381     4.0044895015
O       0.1823893370     -0.0732604109     2.0988405665
$end
--------------------------------------------------------------
 ----------------------------------------------------------------
             Standard Nuclear Orientation (Angstroms)
    I     Atom           X                Y                Z
 ----------------------------------------------------------------
    1      N       0.7895132840     1.1605419268     2.4550803845
    2      O      -0.0398570503     2.0142863123     2.4437154275
    3      O       1.9466296302     1.1820270873     2.7021421171
    4      N       0.0313440725    -1.0710262676     3.3960318929
    5      O      -0.9650281433    -1.1175795381     4.0044895015
    6      O       0.1823893370    -0.0732604109     2.0988405665
 ----------------------------------------------------------------
 Nuclear Repulsion Energy =         230.76471766 hartrees
 There are       24 alpha and       22 beta electrons
 Requested basis set is 6-311+G(2df,2pd)
 There are 48 shells and 204 basis functions

 Total QAlloc Memory Limit   2000 MB
 Mega-Array Size       188 MB
 MEM_STATIC part       192 MB

                       Distance Matrix (Angstroms)
             N (  1)   O (  2)   O (  3)   N (  4)   O (  5)
   O (  2)  1.190321
   O (  3)  1.183393  2.169232
   N (  4)  2.537737  3.229726  3.037442
   O (  5)  3.266332  3.619467  3.932181  1.168394
   O (  6)  1.420484  2.127483  2.247724  1.643489  2.457370
 
 A cutoff of  1.0D-09 yielded   1019 shell pairs
 There are     19013 function pairs (     24957 Cartesian)
 Smallest overlap matrix eigenvalue = 4.15E-04

 Scale SEOQF with 1.000000e-01/1.000000e-01/1.000000e-01

 Standard Electronic Orientation quadrupole field applied
 Nucleus-field energy     =    -0.0000000355 hartrees
 Requested basis set is 6-31G(d)
 There are 24 shells and 84 basis functions
 A cutoff of  1.0D-09 yielded    262 shell pairs
 There are      3464 function pairs (      3982 Cartesian)
 Smallest overlap matrix eigenvalue = 5.13E-03
 Guess from superposition of atomic densities
 Warning:  Energy on first SCF cycle will be non-variational
 SAD guess density has 46.000000 electrons
 Long-range K will be added via erf
 Coulomb attenuation parameter = 0.2 bohr**(-1)
 An unrestricted hybrid HF-DFT SCF calculation will be
 performed using Relaxed Constraint Minimization + Pulay DIIS
 Exchange:     0.2220 Hartree-Fock + 1.0000 wB97X-D + LR-HF
 Correlation:  1.0000 wB97X-D
 Using Euler-Maclaurin-Lebedev (75,302) quadrature formula
 Dispersion:   Grimme D
 SCF converges when DIIS error is below 1.0E-04
 using 6 threads for integral computing
 -------------------------------------------------------
 OpenMP Integral computing Module                
 Release: version 1.0, May 2013, Q-Chem Inc. Pittsburgh 
 -------------------------------------------------------
 using 6 threads for integral computing
 -------------------------------------------------------
 OpenMP Integral computing Module                
 Release: version 1.0, May 2013, Q-Chem Inc. Pittsburgh 
 -------------------------------------------------------
 ---------------------------------------
  Cycle       Energy         DIIS Error
 ---------------------------------------
    1    -411.0290698902      8.84E-02
    2    -409.6419126431      1.97E-02
    3    -409.7486758694      4.34E-03
    4    -409.9004418738      4.64E-03
    5    -409.9065746422      6.32E-04 Done RCA. Switching to DIIS
    6    -409.9149543934      5.04E-04
    7    -409.9154046913      1.57E-04
    8    -409.9155140147      9.02E-05 Convergence criterion met
 ---------------------------------------
 <S^2> = 2.0181
 SCF time:  CPU 14.33 s  wall 2.40 s
 SCF   energy in the small basis set = -409.91551401
 Total energy in the small basis set = -409.91551401
 ----------------------------------------------------
  Cycle       Energy    
 ----------------------------------------------------
    1     -41.7583137150     -4.18E+01
 Long-range K will be added via erf
 Coulomb attenuation parameter = 0.2 bohr**(-1)
 An unrestricted hybrid HF-DFT SCF calculation will be
 performed using Relaxed Constraint Minimization + Pulay DIIS
 Exchange:     0.2220 Hartree-Fock + 1.0000 wB97X-D + LR-HF
 Correlation:  1.0000 wB97X-D
 Using Euler-Maclaurin-Lebedev (75,302) quadrature formula
 Dispersion:   Grimme D
 SCF converges when DIIS error is below 1.0E-05
 Basis2 calculation detected. Using small basis as guess for larger.
 SCFMinFind is unable to tell whether the solution found is close.
 Resetting ReadMinima to 0 and attempting to follow guess.
 SCFMinFind following SCF Guess.
 using 6 threads for integral computing
 -------------------------------------------------------
 OpenMP Integral computing Module                
 Release: version 1.0, May 2013, Q-Chem Inc. Pittsburgh 
 -------------------------------------------------------
 using 6 threads for integral computing
 -------------------------------------------------------
 OpenMP Integral computing Module                
 Release: version 1.0, May 2013, Q-Chem Inc. Pittsburgh 
 -------------------------------------------------------
 ---------------------------------------
  Cycle       Energy         DIIS Error
 ---------------------------------------
    1    -409.9922841331      8.11E-03
    2    -409.9977095470      4.60E-03
    3    -410.0240182963      1.30E-03
    4    -410.0624055928      1.38E-03
    5    -410.0654468262      1.90E-04 Done RCA. Switching to DIIS
    6    -410.0699696052      1.94E-04
    7    -410.0703939594      7.23E-05
    8    -410.0707902478      5.83E-05
    9    -410.0710451396      3.54E-05
   10    -410.0712527531      2.34E-05
   11    -410.0713649071      1.34E-05
   12    -410.0713921817      1.13E-05
   13    -410.0713986549      3.67E-06 Convergence criterion met
 ---------------------------------------
 <S^2> = 2.0205
 SCF time:  CPU 81.51 s  wall 13.62 s
 SCF   energy in the final basis set = -410.07139865
 Total energy in the final basis set = -410.07139865
 
 --------------------------------------------------------------
 
                    Orbital Energies (a.u.)
 --------------------------------------------------------------
 
 Alpha MOs
 -- Occupied --
-19.4065 -19.3966 -19.3527 -19.3518 -14.7725 -14.6225  -1.4459  -1.3676
 -1.2613  -1.2073  -0.8748  -0.7785  -0.7277  -0.7156  -0.6801  -0.6505
 -0.6329  -0.6307  -0.5247  -0.4851  -0.4680  -0.4571  -0.4381  -0.3400
 -- Virtual --
 -0.0421   0.0172   0.0809   0.1186   0.1242   0.1316   0.1411   0.1731
  0.1776   0.1831   0.2295   0.2363   0.2460   0.2692   0.2776   0.2852
  0.2939   0.3309   0.3337   0.3547   0.3590   0.3651   0.3754   0.3913
  0.3989   0.4257   0.4473   0.4565   0.4963   0.5247   0.7175   0.7744
  0.8022   0.8297   0.8509   0.8674   0.9082   0.9295   0.9814   1.0004
  1.0245   1.0355   1.0580   1.0786   1.0945   1.1003   1.1128   1.1210
  1.1249   1.1499   1.1905   1.1917   1.2212   1.2570   1.3019   1.3342
  1.4024   1.4355   1.5115   1.5343   1.5530   1.5629   1.6043   1.6187
  1.6533   1.6854   1.7160   1.7726   1.8342   1.9022   1.9351   1.9513
  1.9883   2.1448   2.1836   2.2554   2.2944   2.3739   2.4400   2.5093
  2.5225   2.5429   2.6768   2.7845   3.4289   3.5367   3.5445   3.6027
  3.6583   3.6779   3.7062   3.7170   3.7641   3.7830   3.8750   3.9106
  3.9239   4.0050   4.0078   4.0418   4.0711   4.4139   4.4548   4.4857
  4.4999   4.5811   4.6300   4.6732   4.6938   4.7109   4.7133   4.7702
  4.8584   4.8822   5.0035   5.0094   5.0178   5.0312   5.0376   5.0426
  5.0630   5.0796   5.0858   5.1106   5.1325   5.1402   5.1613   5.1844
  5.1994   5.2618   5.2818   5.3489   5.4121   5.4361   5.4562   5.4849
  5.5439   5.5876   5.6260   5.7051   5.7915   5.9393   5.9776   6.1205
  6.3056   6.5347   6.6346   6.6561   6.7096   6.7302   6.7505   6.7627
  6.8045   6.8122   6.8545   6.9063   6.9493   7.0501   7.0771   7.1159
  7.1582   7.1755   7.1826   7.2599   7.3105   7.3720   7.4423   7.5706
  7.6052   7.7028   7.7958   7.8464   7.9310   8.2795  35.9127  36.1249
 49.9696  50.1659  50.2313  50.2533
 
 Beta MOs
 -- Occupied --
-19.3925 -19.3798 -19.3523 -19.3501 -14.7726 -14.6043  -1.4414  -1.3309
 -1.2587  -1.1718  -0.8320  -0.7499  -0.7148  -0.7019  -0.6749  -0.5964
 -0.5840  -0.5611  -0.4971  -0.4695  -0.4636  -0.4285
 -- Virtual --
 -0.1556  -0.0323  -0.0070   0.0545   0.0925   0.1237   0.1345   0.1386
  0.1456   0.1758   0.1820   0.1865   0.2312   0.2392   0.2481   0.2728
  0.2793   0.2892   0.2986   0.3326   0.3355   0.3562   0.3613   0.3670
  0.3785   0.3998   0.4041   0.4279   0.4585   0.4599   0.5064   0.5315
  0.7306   0.7837   0.8126   0.8416   0.8631   0.8805   0.9207   0.9326
  0.9907   1.0083   1.0351   1.0523   1.0729   1.0839   1.1030   1.1112
  1.1227   1.1292   1.1377   1.1622   1.1977   1.2065   1.2389   1.2685
  1.3151   1.3464   1.4090   1.4481   1.5231   1.5445   1.5590   1.5785
  1.6245   1.6285   1.6640   1.7049   1.7302   1.7776   1.8418   1.9123
  1.9489   1.9616   2.0019   2.1672   2.1931   2.2696   2.3056   2.3838
  2.4544   2.5183   2.5297   2.5501   2.6828   2.7870   3.4457   3.5734
  3.5800   3.6108   3.6800   3.6872   3.7112   3.7256   3.7971   3.8467
  3.8863   3.9284   3.9429   4.0165   4.0208   4.0581   4.0864   4.4159
  4.4605   4.4915   4.5044   4.6049   4.6366   4.6949   4.7273   4.7308
  4.7579   4.8130   4.8904   4.9334   5.0199   5.0319   5.0401   5.0497
  5.0517   5.0560   5.0768   5.0924   5.1042   5.1274   5.1523   5.1611
  5.1902   5.2043   5.2245   5.2827   5.3042   5.3610   5.4196   5.4493
  5.4706   5.5076   5.5582   5.6105   5.6452   5.7230   5.7958   5.9588
  5.9892   6.1555   6.3140   6.5375   6.6560   6.7012   6.7382   6.7667
  6.7880   6.8025   6.8120   6.8211   6.8596   6.9078   6.9817   7.0651
  7.0976   7.1441   7.1912   7.1963   7.2063   7.2643   7.3221   7.3801
  7.4654   7.5776   7.6400   7.7308   7.8001   7.8534   7.9501   8.2811
 35.9348  36.1248  49.9845  50.1815  50.2338  50.2531
 --------------------------------------------------------------
 
 -----------------------------------------------------------------
                    Cartesian Multipole Moments
 -----------------------------------------------------------------
    Charge (ESU x 10^10)
                 0.0000
    Dipole Moment (Debye)
         X      -0.0784      Y      -0.6539      Z       0.0113
       Tot       0.6586
    Quadrupole Moments (Debye-Ang)
        XX     -34.3880     XY      -0.3249     YY     -33.5038
        XZ      -0.2461     YZ      -2.3179     ZZ     -30.7814
    Octopole Moments (Debye-Ang^2)
       XXX     -37.0300    XXY     -13.0981    XYY     -10.4188
       YYY     -40.7136    XXZ     -98.6189    XYZ      -2.7603
       YYZ     -94.7963    XZZ      -9.3967    YZZ     -17.1398
       ZZZ    -264.4764
    Hexadecapole Moments (Debye-Ang^3)
      XXXX    -205.7035   XXXY     -72.2463   XXYY     -88.7666
      XYYY     -67.3949   YYYY    -329.2756   XXXZ     -76.7456
      XXYZ     -20.3703   XYYZ     -20.9257   YYYZ     -65.0150
      XXZZ    -331.9091   XYZZ     -33.5416   YYZZ    -335.1549
      XZZZ     -48.2971   YZZZ     -56.7427   ZZZZ   -1615.7162
 -----------------------------------------------------------------
Archival summary:
1\1\centos77-c5\SP\ProcedureUnspecified\BasisUnspecified\42(3)\shihchen\MonJul1315:04:092020MonJul1315:04:092020\0\\#,ProcedureUnspecified,BasisUnspecified,\\0,3\N\O,1,1.18339\O,1,1.19032,2,132.087\O,1,1.42048,2,119.081,3,-179.712,0\N,4,1.64349,1,111.633,2,72.5894,0\O,5,1.16839,4,120.904,1,95.6949,0\\\@

 Total job time:  18.43s(wall), 100.30s(cpu) 
 Mon Jul 13 15:04:09 2020

        *************************************************************
        *                                                           *
        *  Thank you very much for using Q-Chem.  Have a nice day.  *
        *                                                           *
        *************************************************************


