                  Welcome to Q-Chem
     A Quantum Leap Into The Future Of Chemistry


 Q-Chem 5.3 (devel), Q-Chem, Inc., Pleasanton, CA (2020)

 Yihan Shao,  Zhengting Gan,  E. Epifanovsky,  A. T. B. Gilbert,  M. Wormit,  
 J. Kussmann,  A. W. Lange,  A. Behn,  Jia Deng,  Xintian Feng,  D. Ghosh,  
 M. Goldey,  P. R. Horn,  L. D. Jacobson,  I. Kaliman,  T. Kus,  A. Landau,  
 Jie Liu,  E. I. Proynov,  R. M. Richard,  R. P. Steele,  E. J. Sundstrom,  
 H. L. Woodcock III,  P. M. Zimmerman,  D. Zuev,  B. Alam,  B. Albrecht,  
 E. Alguire,  S. A. Baeppler,  D. Barton,  Z. Benda,  Y. A. Bernard,  
 E. J. Berquist,  K. B. Bravaya,  H. Burton,  K. Carter-Fenk,  D. Casanova,  
 Chun-Min Chang,  Yunqing Chen,  A. Chien,  K. D. Closser,  M. P. Coons,  
 S. Coriani,  S. Dasgupta,  A. L. Dempwolff,  M. Diedenhofen,  Hainam Do,  
 R. G. Edgar,  Po-Tung Fang,  S. Faraji,  S. Fatehi,  Qingguo Feng,  
 J. Fosso-Tande,  J. Gayvert,  Qinghui Ge,  A. Ghysels,  G. Gidofalvi,  
 J. Gomes,  J. Gonthier,  A. Gunina,  D. Hait,  M. W. D. Hanson-Heine,  
 P. H. P. Harbach,  A. W. Hauser,  M. F. Herbst,  J. E. Herr,  
 E. G. Hohenstein,  Z. C. Holden,  Kerwin Hui,  B. C. Huynh,  T.-C. Jagau,  
 Hyunjun Ji,  B. Kaduk,  K. Khistyaev,  Jaehoon Kim,  P. Klunzinger,  K. Koh,  
 D. Kosenkov,  L. Koulias,  T. Kowalczyk,  C. M. Krauter,  A. Kunitsa,  
 Ka Un Lao,  A. Laurent,  K. V. Lawler,  Joonho Lee,  D. Lefrancois,  
 S. Lehtola,  D. S. Levine,  Yi-Pei Li,  You-Sheng Lin,  Fenglai Liu,  
 Kuan-Yu Liu,  E. Livshits,  M. Loipersberger,  A. Luenser,  P. Manohar,  
 E. Mansoor,  S. F. Manzer,  Shan-Ping Mao,  Yuezhi Mao,  N. Mardirossian,  
 A. V. Marenich,  T. Markovich,  L. A. Martinez-Martinez,  S. A. Maurer,  
 N. J. Mayhall,  S. C. McKenzie,  J.-M. Mewes,  P. Morgante,  A. F. Morrison,  
 J. W. Mullinax,  K. Nanda,  T. S. Nguyen-Beck,  R. Olivares-Amaya,  
 K. J. Oosterbaan,  J. A. Parkhill,  S. K. Paul,  F. Pavosevic,  Zheng Pei,  
 T. M. Perrine,  F. Plasser,  P. Pokhilko,  S. Prager,  A. Prociuk,  
 E. Ramos,  B. Rana,  D. R. Rehn,  F. Rob,  M. Scheurer,  M. Schneider,  
 N. Sergueev,  S. M. Sharada,  S. Sharma,  D. W. Small,  T. Stauch,  
 C. J. Stein,  T. Stein,  Yu-Chuan Su,  S. P. Veccham,  Zhen Tao,  
 A. J. W. Thom,  A. Tkatchenko,  T. Tsuchimochi,  N. M. Tubman,  L. Vogt,  
 M. L. Vidal,  O. Vydrov,  M. A. Watson,  J. Wenzel,  M. de Wergifosse,  
 T. A. Wesolowski,  A. White,  J. Witte,  A. Yamada,  Jun Yang,  K. Yao,  
 S. Yeganeh,  S. R. Yost,  Zhi-Qiang You,  A. Zech,  Igor Ying Zhang,  
 Xing Zhang,  Yan Zhao,  Ying Zhu,  B. R. Brooks,  G. K. L. Chan,  
 C. J. Cramer,  M. S. Gordon,  W. J. Hehre,  A. Klamt,  M. W. Schmidt,  
 C. D. Sherrill,  D. G. Truhlar,  A. Aspuru-Guzik,  R. Baer,  A. T. Bell,  
 N. A. Besley,  Jeng-Da Chai,  A. E. DePrince, III,  R. A. DiStasio Jr.,  
 A. Dreuw,  B. D. Dunietz,  T. R. Furlani,  Chao-Ping Hsu,  Yousung Jung,  
 Jing Kong,  D. S. Lambrecht,  WanZhen Liang,  C. Ochsenfeld,  
 V. A. Rassolov,  L. V. Slipchenko,  J. E. Subotnik,  T. Van Voorhis,  
 J. M. Herbert,  A. I. Krylov,  P. M. W. Gill,  M. Head-Gordon

 Contributors to earlier versions of Q-Chem not listed above: 
 R. D. Adamson,  B. Austin,  J. Baker,  G. J. O. Beran,  K. Brandhorst,  
 S. T. Brown,  E. F. C. Byrd,  A. K. Chakraborty,  C.-L. Cheng,  
 Siu Hung Chien,  D. M. Chipman,  D. L. Crittenden,  H. Dachsel,  
 R. J. Doerksen,  A. D. Dutoi,  L. Fusti-Molnar,  W. A. Goddard III,  
 A. Golubeva-Zadorozhnaya,  S. R. Gwaltney,  G. Hawkins,  A. Heyden,  
 S. Hirata,  G. Kedziora,  F. J. Keil,  C. Kelley,  Jihan Kim,  R. A. King,  
 R. Z. Khaliullin,  P. P. Korambath,  W. Kurlancheek,  A. M. Lee,  M. S. Lee,  
 S. V. Levchenko,  Ching Yeh Lin,  D. Liotard,  R. C. Lochan,  I. Lotan,  
 P. E. Maslen,  N. Nair,  D. P. O'Neill,  D. Neuhauser,  E. Neuscamman,  
 C. M. Oana,  R. Olson,  B. Peters,  R. Peverati,  P. A. Pieniazek,  
 Y. M. Rhee,  J. Ritchie,  M. A. Rohrdanz,  E. Rosta,  N. J. Russ,  
 H. F. Schaefer III,  N. E. Schultz,  N. Shenvi,  A. C. Simmonett,  A. Sodt,  
 D. Stuck,  K. S. Thanthiriwatte,  V. Vanovschi,  Tao Wang,  A. Warshel,  
 C. F. Williams,  Q. Wu,  X. Xu,  W. Zhang

 Please cite Q-Chem as follows:
 Y. Shao et al., Mol. Phys. 113, 184-215 (2015)
 DOI: 10.1080/00268976.2014.952696

 Q-Chem 5.3.0 for Intel X86 EM64T Linux

 Parts of Q-Chem use Armadillo 9.800.1 (Horizon Scraper).
 http://arma.sourceforge.net/

 Q-Chem begins on Mon Jul 13 15:15:29 2020  

Host: centos77-c5
0

     Scratch files written to /tmp/29025.centos77-h1/qchem82119//
Processing $rem in /opt/qchem-5.3.0-intel2020u1//config/preferences:
Processing $rem in /home/shihchengli/.qchemrc:

Checking the input file for inconsistencies... 	...done.

--------------------------------------------------------------
User input:
--------------------------------------------------------------
$rem
   JOBTYPE  sp
   EXCHANGE   omegaB97X-D
   BASIS   6-311+G(2df,2pd)
   UNRESTRICTED   True
   max_scf_cycles   250
   geom_opt_max_cycles   1500
   basis2 6-31G*
   scf_algorithm rca_diis
   SYM_IGNORE  TRUE
   print_input   true
   geom_opt_dmax   80
   pop_mulliken false
   XC_GRID 000075000302
$end

$molecule
0 3
N       0.7343310412     1.2433792409     2.4224812467
O       0.4047354312     2.1097714844     1.6757584040
O       1.7557968401     1.0198044618     2.9765943130
N       -0.0101702180     -0.8125776499     3.7104509819
O       -0.5716282840     -1.8369510232     3.6865869309
O       -0.3680736803     0.3715625959     2.6284280135
$end
--------------------------------------------------------------
 ----------------------------------------------------------------
             Standard Nuclear Orientation (Angstroms)
    I     Atom           X                Y                Z
 ----------------------------------------------------------------
    1      N       0.7343310412     1.2433792409     2.4224812467
    2      O       0.4047354312     2.1097714844     1.6757584040
    3      O       1.7557968401     1.0198044618     2.9765943130
    4      N      -0.0101702180    -0.8125776499     3.7104509819
    5      O      -0.5716282840    -1.8369510232     3.6865869309
    6      O      -0.3680736803     0.3715625959     2.6284280135
 ----------------------------------------------------------------
 Nuclear Repulsion Energy =         229.02301047 hartrees
 There are       24 alpha and       22 beta electrons
 Requested basis set is 6-311+G(2df,2pd)
 There are 48 shells and 204 basis functions

 Total QAlloc Memory Limit   2000 MB
 Mega-Array Size       188 MB
 MEM_STATIC part       192 MB

                       Distance Matrix (Angstroms)
             N (  1)   O (  2)   O (  3)   N (  4)   O (  5)
   O (  2)  1.190321
   O (  3)  1.183393  2.169232
   N (  4)  2.537737  3.585003  2.648549
   O (  5)  3.576580  4.535784  3.752606  1.168394
   O (  6)  1.420484  2.127483  2.247724  1.643489  2.457370
 
 A cutoff of  1.0D-09 yielded   1011 shell pairs
 There are     18784 function pairs (     24601 Cartesian)
 Smallest overlap matrix eigenvalue = 7.33E-04

 Scale SEOQF with 1.000000e-01/1.000000e-01/1.000000e-01

 Standard Electronic Orientation quadrupole field applied
 Nucleus-field energy     =    -0.0000000349 hartrees
 Requested basis set is 6-31G(d)
 There are 24 shells and 84 basis functions
 A cutoff of  1.0D-09 yielded    265 shell pairs
 There are      3478 function pairs (      3998 Cartesian)
 Smallest overlap matrix eigenvalue = 4.56E-03
 Guess from superposition of atomic densities
 Warning:  Energy on first SCF cycle will be non-variational
 SAD guess density has 46.000000 electrons
 Long-range K will be added via erf
 Coulomb attenuation parameter = 0.2 bohr**(-1)
 An unrestricted hybrid HF-DFT SCF calculation will be
 performed using Relaxed Constraint Minimization + Pulay DIIS
 Exchange:     0.2220 Hartree-Fock + 1.0000 wB97X-D + LR-HF
 Correlation:  1.0000 wB97X-D
 Using Euler-Maclaurin-Lebedev (75,302) quadrature formula
 Dispersion:   Grimme D
 SCF converges when DIIS error is below 1.0E-04
 using 6 threads for integral computing
 -------------------------------------------------------
 OpenMP Integral computing Module                
 Release: version 1.0, May 2013, Q-Chem Inc. Pittsburgh 
 -------------------------------------------------------
 using 6 threads for integral computing
 -------------------------------------------------------
 OpenMP Integral computing Module                
 Release: version 1.0, May 2013, Q-Chem Inc. Pittsburgh 
 -------------------------------------------------------
 ---------------------------------------
  Cycle       Energy         DIIS Error
 ---------------------------------------
    1    -411.0327842625      8.84E-02
    2    -409.6559585777      1.95E-02
    3    -409.7589454807      4.58E-03
    4    -409.9084098610      4.84E-03
    5    -409.9150731380      6.34E-04 Done RCA. Switching to DIIS
    6    -409.9240702735      5.50E-04
    7    -409.9245246031      1.20E-04
    8    -409.9246108810      9.67E-05 Convergence criterion met
 ---------------------------------------
 <S^2> = 2.0159
 SCF time:  CPU 14.29 s  wall 2.40 s
 SCF   energy in the small basis set = -409.92461088
 Total energy in the small basis set = -409.92461088
 ----------------------------------------------------
  Cycle       Energy    
 ----------------------------------------------------
    1     -41.7575503801     -4.18E+01
 Long-range K will be added via erf
 Coulomb attenuation parameter = 0.2 bohr**(-1)
 An unrestricted hybrid HF-DFT SCF calculation will be
 performed using Relaxed Constraint Minimization + Pulay DIIS
 Exchange:     0.2220 Hartree-Fock + 1.0000 wB97X-D + LR-HF
 Correlation:  1.0000 wB97X-D
 Using Euler-Maclaurin-Lebedev (75,302) quadrature formula
 Dispersion:   Grimme D
 SCF converges when DIIS error is below 1.0E-05
 Basis2 calculation detected. Using small basis as guess for larger.
 SCFMinFind is unable to tell whether the solution found is close.
 Resetting ReadMinima to 0 and attempting to follow guess.
 SCFMinFind following SCF Guess.
 using 6 threads for integral computing
 -------------------------------------------------------
 OpenMP Integral computing Module                
 Release: version 1.0, May 2013, Q-Chem Inc. Pittsburgh 
 -------------------------------------------------------
 using 6 threads for integral computing
 -------------------------------------------------------
 OpenMP Integral computing Module                
 Release: version 1.0, May 2013, Q-Chem Inc. Pittsburgh 
 -------------------------------------------------------
 ---------------------------------------
  Cycle       Energy         DIIS Error
 ---------------------------------------
    1    -410.0138177013      8.02E-03
    2    -410.0241908782      4.10E-03
    3    -410.0449318706      1.12E-03
    4    -410.0744546902      1.21E-03
    5    -410.0765748912      1.98E-04 Done RCA. Switching to DIIS
    6    -410.0795928361      2.14E-04
    7    -410.0798191838      5.31E-05
    8    -410.0798912181      1.93E-05
    9    -410.0799129326      9.43E-06 Convergence criterion met
 ---------------------------------------
 <S^2> = 2.0183
 SCF time:  CPU 58.62 s  wall 9.80 s
 SCF   energy in the final basis set = -410.07991293
 Total energy in the final basis set = -410.07991293
 
 --------------------------------------------------------------
 
                    Orbital Energies (a.u.)
 --------------------------------------------------------------
 
 Alpha MOs
 -- Occupied --
-19.4133 -19.4006 -19.3479 -19.3468 -14.7750 -14.6200  -1.4439  -1.3695
 -1.2588  -1.2093  -0.8732  -0.7790  -0.7196  -0.7182  -0.6842  -0.6539
 -0.6459  -0.6240  -0.5060  -0.4954  -0.4640  -0.4601  -0.4390  -0.3346
 -- Virtual --
 -0.0218   0.0057   0.0716   0.1144   0.1209   0.1342   0.1423   0.1673
  0.1786   0.1968   0.2325   0.2402   0.2508   0.2653   0.2842   0.2935
  0.3073   0.3255   0.3376   0.3418   0.3509   0.3559   0.3765   0.3805
  0.4105   0.4280   0.4433   0.4788   0.4888   0.5244   0.7406   0.7640
  0.7972   0.8062   0.8902   0.8940   0.9295   0.9539   0.9876   0.9990
  1.0247   1.0400   1.0652   1.0759   1.0839   1.0908   1.1017   1.1231
  1.1287   1.1486   1.1597   1.1874   1.2120   1.2393   1.2665   1.3398
  1.4612   1.4729   1.5183   1.5400   1.5486   1.5728   1.5961   1.6102
  1.6301   1.6752   1.7429   1.7996   1.8386   1.8669   1.9171   1.9550
  1.9846   2.1345   2.1570   2.1846   2.3552   2.3757   2.4412   2.4989
  2.5399   2.5564   2.7126   2.8111   3.5047   3.5440   3.5737   3.6019
  3.6145   3.6571   3.6676   3.7314   3.7477   3.7656   3.7875   3.8809
  3.9619   3.9758   4.0171   4.0798   4.1315   4.4240   4.4549   4.4916
  4.4988   4.5777   4.6443   4.6458   4.6998   4.7231   4.7430   4.7626
  4.7884   4.9083   4.9927   5.0050   5.0207   5.0261   5.0423   5.0485
  5.0589   5.0760   5.0908   5.1111   5.1245   5.1277   5.1587   5.1825
  5.2046   5.2995   5.3289   5.3715   5.4029   5.4108   5.4680   5.4931
  5.5506   5.5641   5.6416   5.6616   5.8204   5.8638   5.9889   6.1336
  6.3266   6.5358   6.6517   6.6687   6.7017   6.7187   6.7498   6.7652
  6.7904   6.8321   6.8885   6.9073   6.9290   6.9959   7.0979   7.1044
  7.1576   7.1686   7.1882   7.2709   7.2836   7.3475   7.4489   7.5665
  7.6673   7.6945   7.8222   7.8422   7.9176   8.2773  35.9107  36.1210
 49.9871  50.1636  50.2381  50.2631
 
 Beta MOs
 -- Occupied --
-19.3992 -19.3829 -19.3473 -19.3460 -14.7753 -14.6014  -1.4398  -1.3314
 -1.2568  -1.1749  -0.8311  -0.7443  -0.7156  -0.7053  -0.6729  -0.6035
 -0.5781  -0.5667  -0.4798  -0.4708  -0.4615  -0.4461
 -- Virtual --
 -0.1480  -0.0270   0.0078   0.0551   0.0826   0.1178   0.1310   0.1383
  0.1470   0.1692   0.1808   0.2002   0.2345   0.2415   0.2552   0.2666
  0.2885   0.2982   0.3110   0.3261   0.3398   0.3435   0.3526   0.3585
  0.3790   0.3868   0.4192   0.4352   0.4457   0.4834   0.5033   0.5295
  0.7507   0.7783   0.8122   0.8244   0.8963   0.9008   0.9376   0.9639
  0.9972   1.0082   1.0305   1.0552   1.0700   1.0877   1.1020   1.1047
  1.1126   1.1306   1.1420   1.1521   1.1726   1.1999   1.2208   1.2525
  1.2796   1.3543   1.4709   1.4891   1.5372   1.5448   1.5579   1.5763
  1.6075   1.6274   1.6579   1.6827   1.7541   1.8033   1.8569   1.8780
  1.9229   1.9629   2.0037   2.1557   2.1711   2.1914   2.3597   2.3865
  2.4617   2.5164   2.5419   2.5588   2.7226   2.8151   3.5317   3.5804
  3.5933   3.6154   3.6279   3.6594   3.6824   3.7470   3.7669   3.8063
  3.8337   3.9012   3.9929   3.9982   4.0176   4.0898   4.1439   4.4258
  4.4578   4.4959   4.5008   4.6139   4.6500   4.6769   4.7242   4.7536
  4.7735   4.8074   4.8237   4.9565   5.0119   5.0242   5.0438   5.0495
  5.0558   5.0636   5.0751   5.0888   5.1149   5.1246   5.1323   5.1475
  5.1828   5.2075   5.2211   5.3264   5.3506   5.3967   5.4067   5.4211
  5.4827   5.5128   5.5588   5.5945   5.6608   5.6774   5.8267   5.8712
  6.0043   6.1703   6.3398   6.5375   6.6824   6.6965   6.7382   6.7671
  6.7834   6.7948   6.8081   6.8390   6.8906   6.9083   6.9695   7.0086
  7.1168   7.1235   7.1692   7.1961   7.2180   7.2754   7.3088   7.3547
  7.4722   7.5761   7.6966   7.7225   7.8331   7.8600   7.9260   8.2789
 35.9331  36.1207  50.0017  50.1797  50.2404  50.2630
 --------------------------------------------------------------
 
 -----------------------------------------------------------------
                    Cartesian Multipole Moments
 -----------------------------------------------------------------
    Charge (ESU x 10^10)
                -0.0000
    Dipole Moment (Debye)
         X      -0.2992      Y      -0.6583      Z       0.4143
       Tot       0.8334
    Quadrupole Moments (Debye-Ang)
        XX     -33.7374     XY      -0.9777     YY     -33.9890
        XZ      -1.3609     YZ      -0.2576     ZZ     -29.2774
    Octopole Moments (Debye-Ang^2)
       XXX     -35.7284    XXY     -13.9621    XYY     -10.9945
       YYY     -37.0339    XXZ     -97.1876    XYZ      -3.2354
       YYZ     -92.4054    XZZ     -14.7052    YZZ      -9.8468
       ZZZ    -258.9269
    Hexadecapole Moments (Debye-Ang^3)
      XXXX    -166.9715   XXXY     -75.4509   XXYY     -92.9573
      XYYY     -75.2712   YYYY    -391.5830   XXXZ     -87.6970
      XXYZ     -12.5241   XYYZ     -23.3250   YYYZ     -12.4641
      XXZZ    -325.9658   XYZZ     -34.9664   YYZZ    -337.7012
      XZZZ     -84.3012   YZZZ     -10.5497   ZZZZ   -1606.9938
 -----------------------------------------------------------------
Archival summary:
1\1\centos77-c5\SP\ProcedureUnspecified\BasisUnspecified\42(3)\shihchen\MonJul1315:15:432020MonJul1315:15:432020\0\\#,ProcedureUnspecified,BasisUnspecified,\\0,3\N\O,1,1.18339\O,1,1.19032,2,132.087\O,1,1.42048,2,119.081,3,-179.712,0\N,4,1.64349,1,111.633,2,2.58945,0\O,5,1.16839,4,120.904,1,-154.305,0\\\@

 Total job time:  14.54s(wall), 76.98s(cpu) 
 Mon Jul 13 15:15:43 2020

        *************************************************************
        *                                                           *
        *  Thank you very much for using Q-Chem.  Have a nice day.  *
        *                                                           *
        *************************************************************


