                  Welcome to Q-Chem
     A Quantum Leap Into The Future Of Chemistry


 Q-Chem 5.3 (devel), Q-Chem, Inc., Pleasanton, CA (2020)

 Yihan Shao,  Zhengting Gan,  E. Epifanovsky,  A. T. B. Gilbert,  M. Wormit,  
 J. Kussmann,  A. W. Lange,  A. Behn,  Jia Deng,  Xintian Feng,  D. Ghosh,  
 M. Goldey,  P. R. Horn,  L. D. Jacobson,  I. Kaliman,  T. Kus,  A. Landau,  
 Jie Liu,  E. I. Proynov,  R. M. Richard,  R. P. Steele,  E. J. Sundstrom,  
 H. L. Woodcock III,  P. M. Zimmerman,  D. Zuev,  B. Alam,  B. Albrecht,  
 E. Alguire,  S. A. Baeppler,  D. Barton,  Z. Benda,  Y. A. Bernard,  
 E. J. Berquist,  K. B. Bravaya,  H. Burton,  K. Carter-Fenk,  D. Casanova,  
 Chun-Min Chang,  Yunqing Chen,  A. Chien,  K. D. Closser,  M. P. Coons,  
 S. Coriani,  S. Dasgupta,  A. L. Dempwolff,  M. Diedenhofen,  Hainam Do,  
 R. G. Edgar,  Po-Tung Fang,  S. Faraji,  S. Fatehi,  Qingguo Feng,  
 J. Fosso-Tande,  J. Gayvert,  Qinghui Ge,  A. Ghysels,  G. Gidofalvi,  
 J. Gomes,  J. Gonthier,  A. Gunina,  D. Hait,  M. W. D. Hanson-Heine,  
 P. H. P. Harbach,  A. W. Hauser,  M. F. Herbst,  J. E. Herr,  
 E. G. Hohenstein,  Z. C. Holden,  Kerwin Hui,  B. C. Huynh,  T.-C. Jagau,  
 Hyunjun Ji,  B. Kaduk,  K. Khistyaev,  Jaehoon Kim,  P. Klunzinger,  K. Koh,  
 D. Kosenkov,  L. Koulias,  T. Kowalczyk,  C. M. Krauter,  A. Kunitsa,  
 Ka Un Lao,  A. Laurent,  K. V. Lawler,  Joonho Lee,  D. Lefrancois,  
 S. Lehtola,  D. S. Levine,  Yi-Pei Li,  You-Sheng Lin,  Fenglai Liu,  
 Kuan-Yu Liu,  E. Livshits,  M. Loipersberger,  A. Luenser,  P. Manohar,  
 E. Mansoor,  S. F. Manzer,  Shan-Ping Mao,  Yuezhi Mao,  N. Mardirossian,  
 A. V. Marenich,  T. Markovich,  L. A. Martinez-Martinez,  S. A. Maurer,  
 N. J. Mayhall,  S. C. McKenzie,  J.-M. Mewes,  P. Morgante,  A. F. Morrison,  
 J. W. Mullinax,  K. Nanda,  T. S. Nguyen-Beck,  R. Olivares-Amaya,  
 K. J. Oosterbaan,  J. A. Parkhill,  S. K. Paul,  F. Pavosevic,  Zheng Pei,  
 T. M. Perrine,  F. Plasser,  P. Pokhilko,  S. Prager,  A. Prociuk,  
 E. Ramos,  B. Rana,  D. R. Rehn,  F. Rob,  M. Scheurer,  M. Schneider,  
 N. Sergueev,  S. M. Sharada,  S. Sharma,  D. W. Small,  T. Stauch,  
 C. J. Stein,  T. Stein,  Yu-Chuan Su,  S. P. Veccham,  Zhen Tao,  
 A. J. W. Thom,  A. Tkatchenko,  T. Tsuchimochi,  N. M. Tubman,  L. Vogt,  
 M. L. Vidal,  O. Vydrov,  M. A. Watson,  J. Wenzel,  M. de Wergifosse,  
 T. A. Wesolowski,  A. White,  J. Witte,  A. Yamada,  Jun Yang,  K. Yao,  
 S. Yeganeh,  S. R. Yost,  Zhi-Qiang You,  A. Zech,  Igor Ying Zhang,  
 Xing Zhang,  Yan Zhao,  Ying Zhu,  B. R. Brooks,  G. K. L. Chan,  
 C. J. Cramer,  M. S. Gordon,  W. J. Hehre,  A. Klamt,  M. W. Schmidt,  
 C. D. Sherrill,  D. G. Truhlar,  A. Aspuru-Guzik,  R. Baer,  A. T. Bell,  
 N. A. Besley,  Jeng-Da Chai,  A. E. DePrince, III,  R. A. DiStasio Jr.,  
 A. Dreuw,  B. D. Dunietz,  T. R. Furlani,  Chao-Ping Hsu,  Yousung Jung,  
 Jing Kong,  D. S. Lambrecht,  WanZhen Liang,  C. Ochsenfeld,  
 V. A. Rassolov,  L. V. Slipchenko,  J. E. Subotnik,  T. Van Voorhis,  
 J. M. Herbert,  A. I. Krylov,  P. M. W. Gill,  M. Head-Gordon

 Contributors to earlier versions of Q-Chem not listed above: 
 R. D. Adamson,  B. Austin,  J. Baker,  G. J. O. Beran,  K. Brandhorst,  
 S. T. Brown,  E. F. C. Byrd,  A. K. Chakraborty,  C.-L. Cheng,  
 Siu Hung Chien,  D. M. Chipman,  D. L. Crittenden,  H. Dachsel,  
 R. J. Doerksen,  A. D. Dutoi,  L. Fusti-Molnar,  W. A. Goddard III,  
 A. Golubeva-Zadorozhnaya,  S. R. Gwaltney,  G. Hawkins,  A. Heyden,  
 S. Hirata,  G. Kedziora,  F. J. Keil,  C. Kelley,  Jihan Kim,  R. A. King,  
 R. Z. Khaliullin,  P. P. Korambath,  W. Kurlancheek,  A. M. Lee,  M. S. Lee,  
 S. V. Levchenko,  Ching Yeh Lin,  D. Liotard,  R. C. Lochan,  I. Lotan,  
 P. E. Maslen,  N. Nair,  D. P. O'Neill,  D. Neuhauser,  E. Neuscamman,  
 C. M. Oana,  R. Olson,  B. Peters,  R. Peverati,  P. A. Pieniazek,  
 Y. M. Rhee,  J. Ritchie,  M. A. Rohrdanz,  E. Rosta,  N. J. Russ,  
 H. F. Schaefer III,  N. E. Schultz,  N. Shenvi,  A. C. Simmonett,  A. Sodt,  
 D. Stuck,  K. S. Thanthiriwatte,  V. Vanovschi,  Tao Wang,  A. Warshel,  
 C. F. Williams,  Q. Wu,  X. Xu,  W. Zhang

 Please cite Q-Chem as follows:
 Y. Shao et al., Mol. Phys. 113, 184-215 (2015)
 DOI: 10.1080/00268976.2014.952696

 Q-Chem 5.3.0 for Intel X86 EM64T Linux

 Parts of Q-Chem use Armadillo 9.800.1 (Horizon Scraper).
 http://arma.sourceforge.net/

 Q-Chem begins on Mon Jul 13 15:21:38 2020  

Host: centos77-c5
0

     Scratch files written to /tmp/29025.centos77-h1/qchem63620//
Processing $rem in /opt/qchem-5.3.0-intel2020u1//config/preferences:
Processing $rem in /home/shihchengli/.qchemrc:

Checking the input file for inconsistencies... 	...done.

--------------------------------------------------------------
User input:
--------------------------------------------------------------
$rem
   JOBTYPE  sp
   EXCHANGE   omegaB97X-D
   BASIS   6-311+G(2df,2pd)
   UNRESTRICTED   True
   max_scf_cycles   250
   geom_opt_max_cycles   1500
   basis2 6-31G*
   scf_algorithm rca_diis
   SYM_IGNORE  TRUE
   print_input   true
   geom_opt_dmax   80
   pop_mulliken false
   XC_GRID 000075000302
$end

$molecule
0 3
N       0.6891851602     1.1045629675     2.3510370347
O       0.5568917186     2.2559398193     2.0795714198
O       1.6252722996     0.3818756482     2.3076405324
N       -0.4342281647     -0.9770574580     3.2702246142
O       0.0643167954     -1.2647460347     4.2870007284
O       -0.5564466791     0.5944141675     2.8048255605
$end
--------------------------------------------------------------
 ----------------------------------------------------------------
             Standard Nuclear Orientation (Angstroms)
    I     Atom           X                Y                Z
 ----------------------------------------------------------------
    1      N       0.6891851602     1.1045629675     2.3510370347
    2      O       0.5568917186     2.2559398193     2.0795714198
    3      O       1.6252722996     0.3818756482     2.3076405324
    4      N      -0.4342281647    -0.9770574580     3.2702246142
    5      O       0.0643167954    -1.2647460347     4.2870007284
    6      O      -0.5564466791     0.5944141675     2.8048255605
 ----------------------------------------------------------------
 Nuclear Repulsion Energy =         233.07654735 hartrees
 There are       24 alpha and       22 beta electrons
 Requested basis set is 6-311+G(2df,2pd)
 There are 48 shells and 204 basis functions

 Total QAlloc Memory Limit   2000 MB
 Mega-Array Size       188 MB
 MEM_STATIC part       192 MB

                       Distance Matrix (Angstroms)
             N (  1)   O (  2)   O (  3)   N (  4)   O (  5)
   O (  2)  1.190321
   O (  3)  1.183393  2.169232
   N (  4)  2.537737  3.585003  2.648549
   O (  5)  3.122826  4.184567  3.010949  1.168394
   O (  6)  1.420484  2.127483  2.247724  1.643489  2.457370
 
 A cutoff of  1.0D-09 yielded   1034 shell pairs
 There are     19305 function pairs (     25363 Cartesian)
 Smallest overlap matrix eigenvalue = 7.03E-04

 Scale SEOQF with 1.000000e-01/1.000000e-01/1.000000e-01

 Standard Electronic Orientation quadrupole field applied
 Nucleus-field energy     =    -0.0000000366 hartrees
 Requested basis set is 6-31G(d)
 There are 24 shells and 84 basis functions
 A cutoff of  1.0D-09 yielded    268 shell pairs
 There are      3534 function pairs (      4062 Cartesian)
 Smallest overlap matrix eigenvalue = 4.84E-03
 Guess from superposition of atomic densities
 Warning:  Energy on first SCF cycle will be non-variational
 SAD guess density has 46.000000 electrons
 Long-range K will be added via erf
 Coulomb attenuation parameter = 0.2 bohr**(-1)
 An unrestricted hybrid HF-DFT SCF calculation will be
 performed using Relaxed Constraint Minimization + Pulay DIIS
 Exchange:     0.2220 Hartree-Fock + 1.0000 wB97X-D + LR-HF
 Correlation:  1.0000 wB97X-D
 Using Euler-Maclaurin-Lebedev (75,302) quadrature formula
 Dispersion:   Grimme D
 SCF converges when DIIS error is below 1.0E-04
 using 6 threads for integral computing
 -------------------------------------------------------
 OpenMP Integral computing Module                
 Release: version 1.0, May 2013, Q-Chem Inc. Pittsburgh 
 -------------------------------------------------------
 using 6 threads for integral computing
 -------------------------------------------------------
 OpenMP Integral computing Module                
 Release: version 1.0, May 2013, Q-Chem Inc. Pittsburgh 
 -------------------------------------------------------
 ---------------------------------------
  Cycle       Energy         DIIS Error
 ---------------------------------------
    1    -411.0338320654      8.84E-02
    2    -409.6589618351      1.95E-02
    3    -409.7628374143      4.42E-03
    4    -409.9108938373      4.66E-03
    5    -409.9170582180      6.45E-04 Done RCA. Switching to DIIS
    6    -409.9252958596      5.52E-04
    7    -409.9257149919      1.12E-04
    8    -409.9258022474      6.08E-05 Convergence criterion met
 ---------------------------------------
 <S^2> = 2.0156
 SCF time:  CPU 14.59 s  wall 2.45 s
 SCF   energy in the small basis set = -409.92580225
 Total energy in the small basis set = -409.92580225
 ----------------------------------------------------
  Cycle       Energy    
 ----------------------------------------------------
    1     -41.7565585735     -4.18E+01
 Long-range K will be added via erf
 Coulomb attenuation parameter = 0.2 bohr**(-1)
 An unrestricted hybrid HF-DFT SCF calculation will be
 performed using Relaxed Constraint Minimization + Pulay DIIS
 Exchange:     0.2220 Hartree-Fock + 1.0000 wB97X-D + LR-HF
 Correlation:  1.0000 wB97X-D
 Using Euler-Maclaurin-Lebedev (75,302) quadrature formula
 Dispersion:   Grimme D
 SCF converges when DIIS error is below 1.0E-05
 Basis2 calculation detected. Using small basis as guess for larger.
 SCFMinFind is unable to tell whether the solution found is close.
 Resetting ReadMinima to 0 and attempting to follow guess.
 SCFMinFind following SCF Guess.
 using 6 threads for integral computing
 -------------------------------------------------------
 OpenMP Integral computing Module                
 Release: version 1.0, May 2013, Q-Chem Inc. Pittsburgh 
 -------------------------------------------------------
 using 6 threads for integral computing
 -------------------------------------------------------
 OpenMP Integral computing Module                
 Release: version 1.0, May 2013, Q-Chem Inc. Pittsburgh 
 -------------------------------------------------------
 ---------------------------------------
  Cycle       Energy         DIIS Error
 ---------------------------------------
    1    -410.0127034007      8.04E-03
    2    -410.0188178161      4.32E-03
    3    -410.0414515902      1.25E-03
    4    -410.0740483220      1.20E-03
    5    -410.0767048979      1.49E-04 Done RCA. Switching to DIIS
    6    -410.0806988590      1.57E-04
    7    -410.0808875925      5.78E-05
    8    -410.0809897499      2.35E-05
    9    -410.0810236953      1.26E-05
   10    -410.0810342491      6.22E-06 Convergence criterion met
 ---------------------------------------
 <S^2> = 2.0180
 SCF time:  CPU 66.68 s  wall 11.15 s
 SCF   energy in the final basis set = -410.08103425
 Total energy in the final basis set = -410.08103425
 
 --------------------------------------------------------------
 
                    Orbital Energies (a.u.)
 --------------------------------------------------------------
 
 Alpha MOs
 -- Occupied --
-19.4122 -19.4004 -19.3514 -19.3489 -14.7741 -14.6203  -1.4458  -1.3698
 -1.2609  -1.2080  -0.8751  -0.7768  -0.7205  -0.7188  -0.6869  -0.6573
 -0.6372  -0.6274  -0.5033  -0.4978  -0.4656  -0.4623  -0.4383  -0.3405
 -- Virtual --
 -0.0243   0.0107   0.0764   0.1145   0.1264   0.1360   0.1370   0.1706
  0.1788   0.1863   0.2267   0.2389   0.2452   0.2679   0.2800   0.2891
  0.3025   0.3250   0.3424   0.3446   0.3521   0.3597   0.3686   0.3831
  0.4039   0.4307   0.4429   0.4603   0.4793   0.5271   0.7467   0.7682
  0.7947   0.8303   0.8551   0.8790   0.9380   0.9443   0.9749   1.0191
  1.0316   1.0367   1.0428   1.0755   1.0759   1.0924   1.1166   1.1258
  1.1370   1.1484   1.1611   1.1837   1.2273   1.2371   1.2643   1.3218
  1.4322   1.4596   1.5184   1.5482   1.5685   1.5870   1.5933   1.6202
  1.6660   1.6791   1.7027   1.7913   1.8246   1.8839   1.9301   1.9487
  1.9769   2.1240   2.2007   2.2638   2.3325   2.3742   2.4317   2.4922
  2.5372   2.5660   2.6929   2.8064   3.5023   3.5348   3.5783   3.6147
  3.6404   3.6591   3.6866   3.7100   3.7227   3.7755   3.7896   3.8946
  3.9488   3.9872   4.0170   4.0704   4.1003   4.4214   4.4538   4.4901
  4.4956   4.5868   4.6456   4.6645   4.7017   4.7069   4.7355   4.7611
  4.8321   4.9094   4.9928   5.0006   5.0183   5.0242   5.0395   5.0463
  5.0654   5.0809   5.0953   5.1189   5.1233   5.1495   5.1583   5.1718
  5.2058   5.2749   5.3169   5.3768   5.4019   5.4289   5.4660   5.5071
  5.5136   5.5592   5.6300   5.6750   5.8249   5.8644   5.9865   6.1020
  6.3282   6.5317   6.6520   6.6555   6.7085   6.7277   6.7415   6.7652
  6.7891   6.8230   6.8752   6.9064   6.9438   6.9971   7.0979   7.1039
  7.1643   7.1712   7.1958   7.2720   7.3123   7.3539   7.4500   7.5658
  7.6680   7.6927   7.8136   7.8483   7.9066   8.2796  35.9168  36.1222
 49.9932  50.1644  50.2342  50.2640
 
 Beta MOs
 -- Occupied --
-19.3992 -19.3824 -19.3493 -19.3489 -14.7739 -14.6023  -1.4411  -1.3317
 -1.2582  -1.1750  -0.8309  -0.7454  -0.7171  -0.7042  -0.6740  -0.6061
 -0.5820  -0.5578  -0.4790  -0.4723  -0.4633  -0.4479
 -- Virtual --
 -0.1523  -0.0238  -0.0067   0.0621   0.0857   0.1218   0.1369   0.1402
  0.1417   0.1730   0.1840   0.1902   0.2280   0.2425   0.2483   0.2697
  0.2828   0.2922   0.3086   0.3263   0.3438   0.3460   0.3543   0.3612
  0.3714   0.3897   0.4090   0.4383   0.4469   0.4667   0.4956   0.5335
  0.7575   0.7755   0.8109   0.8505   0.8689   0.8833   0.9414   0.9517
  0.9856   1.0247   1.0427   1.0507   1.0555   1.0815   1.0871   1.1112
  1.1257   1.1328   1.1478   1.1635   1.1660   1.1980   1.2407   1.2461
  1.2792   1.3398   1.4458   1.4716   1.5235   1.5521   1.5718   1.5978
  1.6136   1.6431   1.6849   1.6940   1.7183   1.7938   1.8336   1.8965
  1.9349   1.9655   1.9906   2.1392   2.2100   2.2781   2.3476   2.3854
  2.4440   2.5068   2.5401   2.5717   2.7020   2.8103   3.5291   3.5696
  3.5930   3.6328   3.6564   3.6617   3.7004   3.7221   3.7340   3.8018
  3.8607   3.9135   3.9756   4.0077   4.0181   4.0824   4.1161   4.4244
  4.4572   4.4952   4.4995   4.6167   4.6512   4.6980   4.7278   4.7320
  4.7655   4.7988   4.8721   4.9581   5.0107   5.0184   5.0420   5.0458
  5.0553   5.0622   5.0809   5.0888   5.1088   5.1268   5.1560   5.1710
  5.1892   5.1987   5.2163   5.3021   5.3342   5.3959   5.4043   5.4433
  5.4791   5.5331   5.5386   5.5680   5.6510   5.6926   5.8305   5.8706
  6.0032   6.1390   6.3404   6.5342   6.6727   6.6982   6.7358   6.7693
  6.7899   6.8001   6.8037   6.8304   6.8774   6.9083   6.9760   7.0102
  7.1160   7.1239   7.1665   7.2055   7.2261   7.2793   7.3291   7.3693
  7.4756   7.5742   7.6956   7.7221   7.8232   7.8661   7.9141   8.2822
 35.9383  36.1226  50.0068  50.1811  50.2365  50.2639
 --------------------------------------------------------------
 
 -----------------------------------------------------------------
                    Cartesian Multipole Moments
 -----------------------------------------------------------------
    Charge (ESU x 10^10)
                -0.0000
    Dipole Moment (Debye)
         X      -0.4881      Y      -0.6455      Z       0.2329
       Tot       0.8421
    Quadrupole Moments (Debye-Ang)
        XX     -33.7365     XY       0.4945     YY     -33.7816
        XZ      -0.8634     YZ      -0.5896     ZZ     -30.1023
    Octopole Moments (Debye-Ang^2)
       XXX     -34.1549    XXY     -12.1203    XYY     -11.4000
       YYY     -42.7298    XXZ     -94.0630    XYZ       2.6247
       YYZ     -93.3578    XZZ     -11.1131    YZZ      -8.2963
       ZZZ    -264.6689
    Hexadecapole Moments (Debye-Ang^3)
      XXXX    -156.3092   XXXY     -43.9121   XXYY     -79.1437
      XYYY     -44.6497   YYYY    -335.6346   XXXZ     -67.4126
      XXYZ      -8.2990   XYYZ     -21.6638   YYYZ     -40.3304
      XXZZ    -309.0616   XYZZ      -2.9659   YYZZ    -335.0791
      XZZZ     -58.2952   YZZZ       3.8434   ZZZZ   -1657.1956
 -----------------------------------------------------------------
Archival summary:
1\1\centos77-c5\SP\ProcedureUnspecified\BasisUnspecified\42(3)\shihchen\MonJul1315:21:552020MonJul1315:21:552020\0\\#,ProcedureUnspecified,BasisUnspecified,\\0,3\N\O,1,1.18339\O,1,1.19032,2,132.087\O,1,1.42048,2,119.081,3,-179.712,0\N,4,1.64349,1,111.633,2,2.58945,0\O,5,1.16839,4,120.904,1,75.6949,0\\\@

 Total job time:  16.06s(wall), 85.67s(cpu) 
 Mon Jul 13 15:21:55 2020

        *************************************************************
        *                                                           *
        *  Thank you very much for using Q-Chem.  Have a nice day.  *
        *                                                           *
        *************************************************************


