                  Welcome to Q-Chem
     A Quantum Leap Into The Future Of Chemistry


 Q-Chem 5.3 (devel), Q-Chem, Inc., Pleasanton, CA (2020)

 Yihan Shao,  Zhengting Gan,  E. Epifanovsky,  A. T. B. Gilbert,  M. Wormit,  
 J. Kussmann,  A. W. Lange,  A. Behn,  Jia Deng,  Xintian Feng,  D. Ghosh,  
 M. Goldey,  P. R. Horn,  L. D. Jacobson,  I. Kaliman,  T. Kus,  A. Landau,  
 Jie Liu,  E. I. Proynov,  R. M. Richard,  R. P. Steele,  E. J. Sundstrom,  
 H. L. Woodcock III,  P. M. Zimmerman,  D. Zuev,  B. Alam,  B. Albrecht,  
 E. Alguire,  S. A. Baeppler,  D. Barton,  Z. Benda,  Y. A. Bernard,  
 E. J. Berquist,  K. B. Bravaya,  H. Burton,  K. Carter-Fenk,  D. Casanova,  
 Chun-Min Chang,  Yunqing Chen,  A. Chien,  K. D. Closser,  M. P. Coons,  
 S. Coriani,  S. Dasgupta,  A. L. Dempwolff,  M. Diedenhofen,  Hainam Do,  
 R. G. Edgar,  Po-Tung Fang,  S. Faraji,  S. Fatehi,  Qingguo Feng,  
 J. Fosso-Tande,  J. Gayvert,  Qinghui Ge,  A. Ghysels,  G. Gidofalvi,  
 J. Gomes,  J. Gonthier,  A. Gunina,  D. Hait,  M. W. D. Hanson-Heine,  
 P. H. P. Harbach,  A. W. Hauser,  M. F. Herbst,  J. E. Herr,  
 E. G. Hohenstein,  Z. C. Holden,  Kerwin Hui,  B. C. Huynh,  T.-C. Jagau,  
 Hyunjun Ji,  B. Kaduk,  K. Khistyaev,  Jaehoon Kim,  P. Klunzinger,  K. Koh,  
 D. Kosenkov,  L. Koulias,  T. Kowalczyk,  C. M. Krauter,  A. Kunitsa,  
 Ka Un Lao,  A. Laurent,  K. V. Lawler,  Joonho Lee,  D. Lefrancois,  
 S. Lehtola,  D. S. Levine,  Yi-Pei Li,  You-Sheng Lin,  Fenglai Liu,  
 Kuan-Yu Liu,  E. Livshits,  M. Loipersberger,  A. Luenser,  P. Manohar,  
 E. Mansoor,  S. F. Manzer,  Shan-Ping Mao,  Yuezhi Mao,  N. Mardirossian,  
 A. V. Marenich,  T. Markovich,  L. A. Martinez-Martinez,  S. A. Maurer,  
 N. J. Mayhall,  S. C. McKenzie,  J.-M. Mewes,  P. Morgante,  A. F. Morrison,  
 J. W. Mullinax,  K. Nanda,  T. S. Nguyen-Beck,  R. Olivares-Amaya,  
 K. J. Oosterbaan,  J. A. Parkhill,  S. K. Paul,  F. Pavosevic,  Zheng Pei,  
 T. M. Perrine,  F. Plasser,  P. Pokhilko,  S. Prager,  A. Prociuk,  
 E. Ramos,  B. Rana,  D. R. Rehn,  F. Rob,  M. Scheurer,  M. Schneider,  
 N. Sergueev,  S. M. Sharada,  S. Sharma,  D. W. Small,  T. Stauch,  
 C. J. Stein,  T. Stein,  Yu-Chuan Su,  S. P. Veccham,  Zhen Tao,  
 A. J. W. Thom,  A. Tkatchenko,  T. Tsuchimochi,  N. M. Tubman,  L. Vogt,  
 M. L. Vidal,  O. Vydrov,  M. A. Watson,  J. Wenzel,  M. de Wergifosse,  
 T. A. Wesolowski,  A. White,  J. Witte,  A. Yamada,  Jun Yang,  K. Yao,  
 S. Yeganeh,  S. R. Yost,  Zhi-Qiang You,  A. Zech,  Igor Ying Zhang,  
 Xing Zhang,  Yan Zhao,  Ying Zhu,  B. R. Brooks,  G. K. L. Chan,  
 C. J. Cramer,  M. S. Gordon,  W. J. Hehre,  A. Klamt,  M. W. Schmidt,  
 C. D. Sherrill,  D. G. Truhlar,  A. Aspuru-Guzik,  R. Baer,  A. T. Bell,  
 N. A. Besley,  Jeng-Da Chai,  A. E. DePrince, III,  R. A. DiStasio Jr.,  
 A. Dreuw,  B. D. Dunietz,  T. R. Furlani,  Chao-Ping Hsu,  Yousung Jung,  
 Jing Kong,  D. S. Lambrecht,  WanZhen Liang,  C. Ochsenfeld,  
 V. A. Rassolov,  L. V. Slipchenko,  J. E. Subotnik,  T. Van Voorhis,  
 J. M. Herbert,  A. I. Krylov,  P. M. W. Gill,  M. Head-Gordon

 Contributors to earlier versions of Q-Chem not listed above: 
 R. D. Adamson,  B. Austin,  J. Baker,  G. J. O. Beran,  K. Brandhorst,  
 S. T. Brown,  E. F. C. Byrd,  A. K. Chakraborty,  C.-L. Cheng,  
 Siu Hung Chien,  D. M. Chipman,  D. L. Crittenden,  H. Dachsel,  
 R. J. Doerksen,  A. D. Dutoi,  L. Fusti-Molnar,  W. A. Goddard III,  
 A. Golubeva-Zadorozhnaya,  S. R. Gwaltney,  G. Hawkins,  A. Heyden,  
 S. Hirata,  G. Kedziora,  F. J. Keil,  C. Kelley,  Jihan Kim,  R. A. King,  
 R. Z. Khaliullin,  P. P. Korambath,  W. Kurlancheek,  A. M. Lee,  M. S. Lee,  
 S. V. Levchenko,  Ching Yeh Lin,  D. Liotard,  R. C. Lochan,  I. Lotan,  
 P. E. Maslen,  N. Nair,  D. P. O'Neill,  D. Neuhauser,  E. Neuscamman,  
 C. M. Oana,  R. Olson,  B. Peters,  R. Peverati,  P. A. Pieniazek,  
 Y. M. Rhee,  J. Ritchie,  M. A. Rohrdanz,  E. Rosta,  N. J. Russ,  
 H. F. Schaefer III,  N. E. Schultz,  N. Shenvi,  A. C. Simmonett,  A. Sodt,  
 D. Stuck,  K. S. Thanthiriwatte,  V. Vanovschi,  Tao Wang,  A. Warshel,  
 C. F. Williams,  Q. Wu,  X. Xu,  W. Zhang

 Please cite Q-Chem as follows:
 Y. Shao et al., Mol. Phys. 113, 184-215 (2015)
 DOI: 10.1080/00268976.2014.952696

 Q-Chem 5.3.0 for Intel X86 EM64T Linux

 Parts of Q-Chem use Armadillo 9.800.1 (Horizon Scraper).
 http://arma.sourceforge.net/

 Q-Chem begins on Mon Jul 13 15:10:27 2020  

Host: centos77-c5
0

     Scratch files written to /tmp/29025.centos77-h1/qchem120565//
Processing $rem in /opt/qchem-5.3.0-intel2020u1//config/preferences:
Processing $rem in /home/shihchengli/.qchemrc:

Checking the input file for inconsistencies... 	...done.

--------------------------------------------------------------
User input:
--------------------------------------------------------------
$rem
   JOBTYPE  sp
   EXCHANGE   omegaB97X-D
   BASIS   6-311+G(2df,2pd)
   UNRESTRICTED   True
   max_scf_cycles   250
   geom_opt_max_cycles   1500
   basis2 6-31G*
   scf_algorithm rca_diis
   SYM_IGNORE  TRUE
   print_input   true
   geom_opt_dmax   80
   pop_mulliken false
   XC_GRID 000075000302
$end

$molecule
0 3
N       0.9195453705     1.1448316401     2.6753744148
O       1.1834951510     2.0245437773     3.4325407495
O       0.7314689080     1.1335729008     1.5070765779
N       -0.6909414400     -0.6653204546     3.4302177945
O       -1.0411968948     -1.4674557073     2.6562374242
O       0.8426200354     -0.0751830464     3.3988529292
$end
--------------------------------------------------------------
 ----------------------------------------------------------------
             Standard Nuclear Orientation (Angstroms)
    I     Atom           X                Y                Z
 ----------------------------------------------------------------
    1      N       0.9195453705     1.1448316401     2.6753744148
    2      O       1.1834951510     2.0245437773     3.4325407495
    3      O       0.7314689080     1.1335729008     1.5070765779
    4      N      -0.6909414400    -0.6653204546     3.4302177945
    5      O      -1.0411968948    -1.4674557073     2.6562374242
    6      O       0.8426200354    -0.0751830464     3.3988529292
 ----------------------------------------------------------------
 Nuclear Repulsion Energy =         230.94985271 hartrees
 There are       24 alpha and       22 beta electrons
 Requested basis set is 6-311+G(2df,2pd)
 There are 48 shells and 204 basis functions

 Total QAlloc Memory Limit   2000 MB
 Mega-Array Size       188 MB
 MEM_STATIC part       192 MB

                       Distance Matrix (Angstroms)
             N (  1)   O (  2)   O (  3)   N (  4)   O (  5)
   O (  2)  1.190321
   O (  3)  1.183393  2.169232
   N (  4)  2.537737  3.278550  2.992948
   O (  5)  3.266332  4.212596  3.350860  1.168394
   O (  6)  1.420484  2.127483  2.247724  1.643489  2.457370
 
 A cutoff of  1.0D-09 yielded   1024 shell pairs
 There are     19131 function pairs (     25091 Cartesian)
 Smallest overlap matrix eigenvalue = 4.06E-04

 Scale SEOQF with 1.000000e-01/1.000000e-01/1.000000e-01

 Standard Electronic Orientation quadrupole field applied
 Nucleus-field energy     =    -0.0000000356 hartrees
 Requested basis set is 6-31G(d)
 There are 24 shells and 84 basis functions
 A cutoff of  1.0D-09 yielded    265 shell pairs
 There are      3520 function pairs (      4046 Cartesian)
 Smallest overlap matrix eigenvalue = 5.07E-03
 Guess from superposition of atomic densities
 Warning:  Energy on first SCF cycle will be non-variational
 SAD guess density has 46.000000 electrons
 Long-range K will be added via erf
 Coulomb attenuation parameter = 0.2 bohr**(-1)
 An unrestricted hybrid HF-DFT SCF calculation will be
 performed using Relaxed Constraint Minimization + Pulay DIIS
 Exchange:     0.2220 Hartree-Fock + 1.0000 wB97X-D + LR-HF
 Correlation:  1.0000 wB97X-D
 Using Euler-Maclaurin-Lebedev (75,302) quadrature formula
 Dispersion:   Grimme D
 SCF converges when DIIS error is below 1.0E-04
 using 6 threads for integral computing
 -------------------------------------------------------
 OpenMP Integral computing Module                
 Release: version 1.0, May 2013, Q-Chem Inc. Pittsburgh 
 -------------------------------------------------------
 using 6 threads for integral computing
 -------------------------------------------------------
 OpenMP Integral computing Module                
 Release: version 1.0, May 2013, Q-Chem Inc. Pittsburgh 
 -------------------------------------------------------
 ---------------------------------------
  Cycle       Energy         DIIS Error
 ---------------------------------------
    1    -411.0292641114      8.84E-02
    2    -409.6371484956      1.97E-02
    3    -409.7465809723      4.14E-03
    4    -409.9001120353      4.29E-03
    5    -409.9053970209      5.76E-04 Done RCA. Switching to DIIS
    6    -409.9125911046      4.12E-04
    7    -409.9129377623      1.26E-04
    8    -409.9130239595      6.87E-05 Convergence criterion met
 ---------------------------------------
 <S^2> = 2.0161
 SCF time:  CPU 14.23 s  wall 2.39 s
 SCF   energy in the small basis set = -409.91302396
 Total energy in the small basis set = -409.91302396
 ----------------------------------------------------
  Cycle       Energy    
 ----------------------------------------------------
    1     -41.7612928672     -4.18E+01
 Long-range K will be added via erf
 Coulomb attenuation parameter = 0.2 bohr**(-1)
 An unrestricted hybrid HF-DFT SCF calculation will be
 performed using Relaxed Constraint Minimization + Pulay DIIS
 Exchange:     0.2220 Hartree-Fock + 1.0000 wB97X-D + LR-HF
 Correlation:  1.0000 wB97X-D
 Using Euler-Maclaurin-Lebedev (75,302) quadrature formula
 Dispersion:   Grimme D
 SCF converges when DIIS error is below 1.0E-05
 Basis2 calculation detected. Using small basis as guess for larger.
 SCFMinFind is unable to tell whether the solution found is close.
 Resetting ReadMinima to 0 and attempting to follow guess.
 SCFMinFind following SCF Guess.
 using 6 threads for integral computing
 -------------------------------------------------------
 OpenMP Integral computing Module                
 Release: version 1.0, May 2013, Q-Chem Inc. Pittsburgh 
 -------------------------------------------------------
 using 6 threads for integral computing
 -------------------------------------------------------
 OpenMP Integral computing Module                
 Release: version 1.0, May 2013, Q-Chem Inc. Pittsburgh 
 -------------------------------------------------------
 ---------------------------------------
  Cycle       Energy         DIIS Error
 ---------------------------------------
    1    -409.9496529827      8.38E-03
    2    -409.9237153944      6.15E-03
    3    -409.9683865682      2.11E-03
    4    -410.0397987150      1.56E-03
    5    -410.0488584851      6.73E-04 Done RCA. Switching to DIIS
    6    -410.0590623246      1.00E-03
    7    -410.0637824876      1.51E-04
    8    -410.0653949505      9.80E-05
    9    -410.0666715919      7.68E-05
   10    -410.0677922846      5.28E-05
   11    -410.0683755664      4.13E-05
   12    -410.0686845126      2.86E-05
   13    -410.0688436210      1.26E-05
   14    -410.0688782284      4.90E-06 Convergence criterion met
 ---------------------------------------
 <S^2> = 2.0191
 SCF time:  CPU 88.32 s  wall 14.76 s
 SCF   energy in the final basis set = -410.06887823
 Total energy in the final basis set = -410.06887823
 
 --------------------------------------------------------------
 
                    Orbital Energies (a.u.)
 --------------------------------------------------------------
 
 Alpha MOs
 -- Occupied --
-19.4073 -19.4002 -19.3487 -19.3443 -14.7679 -14.6269  -1.4412  -1.3751
 -1.2564  -1.2024  -0.8769  -0.7781  -0.7261  -0.7123  -0.6754  -0.6561
 -0.6398  -0.6308  -0.5159  -0.4829  -0.4650  -0.4583  -0.4302  -0.3458
 -- Virtual --
 -0.0378   0.0151   0.0826   0.1155   0.1276   0.1342   0.1422   0.1684
  0.1759   0.1865   0.2304   0.2384   0.2471   0.2690   0.2844   0.2886
  0.2906   0.3345   0.3379   0.3490   0.3511   0.3618   0.3739   0.3812
  0.3999   0.4282   0.4572   0.4678   0.4940   0.5316   0.7114   0.7738
  0.7815   0.8324   0.8491   0.8704   0.9168   0.9330   0.9825   1.0142
  1.0178   1.0427   1.0625   1.0757   1.0863   1.0965   1.1085   1.1164
  1.1324   1.1566   1.1850   1.1949   1.2367   1.2434   1.2909   1.3318
  1.4151   1.4305   1.5234   1.5412   1.5646   1.5805   1.5974   1.6158
  1.6395   1.6712   1.7168   1.7737   1.8233   1.9268   1.9431   1.9525
  2.0042   2.1151   2.1840   2.2475   2.3062   2.3779   2.4413   2.4938
  2.5315   2.5396   2.6709   2.7876   3.4423   3.5305   3.5326   3.6292
  3.6469   3.6792   3.7007   3.7096   3.7620   3.7725   3.8361   3.9296
  3.9662   3.9965   4.0154   4.0359   4.0624   4.4190   4.4614   4.4807
  4.5093   4.5872   4.6311   4.6692   4.6893   4.7070   4.7148   4.7658
  4.8655   4.8760   5.0017   5.0062   5.0279   5.0340   5.0407   5.0436
  5.0657   5.0780   5.0856   5.1061   5.1316   5.1493   5.1652   5.1889
  5.2058   5.2614   5.2809   5.3698   5.4062   5.4203   5.4756   5.4982
  5.5145   5.6091   5.6257   5.6781   5.7984   5.9378   5.9856   6.1215
  6.3092   6.5395   6.6462   6.6694   6.6800   6.7202   6.7322   6.7686
  6.8122   6.8167   6.8594   6.9100   6.9525   7.0649   7.0800   7.1269
  7.1468   7.1719   7.1985   7.2555   7.2863   7.3577   7.4518   7.5651
  7.6215   7.6920   7.8038   7.8489   7.9327   8.2832  35.9116  36.1297
 49.9798  50.1568  50.2382  50.2579
 
 Beta MOs
 -- Occupied --
-19.3888 -19.3875 -19.3489 -19.3426 -14.7681 -14.6089  -1.4372  -1.3362
 -1.2543  -1.1690  -0.8308  -0.7493  -0.7102  -0.7012  -0.6718  -0.5975
 -0.5850  -0.5652  -0.4993  -0.4666  -0.4585  -0.4235
 -- Virtual --
 -0.1628  -0.0275  -0.0094   0.0576   0.0939   0.1212   0.1373   0.1408
  0.1476   0.1722   0.1801   0.1906   0.2334   0.2420   0.2492   0.2730
  0.2855   0.2926   0.2957   0.3352   0.3399   0.3517   0.3532   0.3642
  0.3770   0.3885   0.4088   0.4340   0.4618   0.4708   0.5088   0.5348
  0.7262   0.7816   0.7935   0.8485   0.8570   0.8806   0.9306   0.9348
  0.9929   1.0209   1.0335   1.0581   1.0720   1.0870   1.1006   1.1099
  1.1210   1.1235   1.1442   1.1638   1.1909   1.2120   1.2487   1.2533
  1.3076   1.3438   1.4231   1.4406   1.5296   1.5569   1.5783   1.5894
  1.6087   1.6332   1.6649   1.6813   1.7307   1.7769   1.8311   1.9370
  1.9513   1.9620   2.0201   2.1341   2.1967   2.2612   2.3181   2.3864
  2.4598   2.5068   2.5365   2.5439   2.6740   2.7896   3.4580   3.5638
  3.5676   3.6429   3.6662   3.6896   3.7076   3.7182   3.7910   3.8336
  3.8540   3.9481   3.9843   4.0102   4.0300   4.0473   4.0744   4.4203
  4.4672   4.4862   4.5130   4.6119   4.6370   4.7020   4.7138   4.7390
  4.7485   4.8077   4.8966   4.9270   5.0313   5.0422   5.0434   5.0459
  5.0525   5.0584   5.0837   5.0882   5.1080   5.1204   5.1401   5.1732
  5.1984   5.2006   5.2260   5.2908   5.2970   5.3768   5.4178   5.4315
  5.4961   5.5165   5.5324   5.6326   5.6493   5.6897   5.8013   5.9608
  5.9940   6.1560   6.3152   6.5424   6.6780   6.6988   6.7109   6.7713
  6.7857   6.7976   6.8168   6.8219   6.8645   6.9117   6.9828   7.0775
  7.0955   7.1563   7.1807   7.1906   7.2258   7.2641   7.2952   7.3652
  7.4727   7.5705   7.6527   7.7221   7.8070   7.8573   7.9518   8.2840
 35.9332  36.1295  49.9935  50.1741  50.2398  50.2580
 --------------------------------------------------------------
 
 -----------------------------------------------------------------
                    Cartesian Multipole Moments
 -----------------------------------------------------------------
    Charge (ESU x 10^10)
                -0.0000
    Dipole Moment (Debye)
         X      -0.4750      Y      -0.7763      Z       0.2651
       Tot       0.9479
    Quadrupole Moments (Debye-Ang)
        XX     -30.5198     XY      -1.1339     YY     -34.3159
        XZ      -2.3479     YZ      -2.6705     ZZ     -32.5139
    Octopole Moments (Debye-Ang^2)
       XXX     -28.9495    XXY     -11.5691    XYY     -13.8742
       YYY     -40.4043    XXZ     -87.6582    XYZ      -3.5483
       YYZ     -98.1533    XZZ     -22.1878    YZZ     -23.1562
       ZZZ    -283.4008
    Hexadecapole Moments (Debye-Ang^3)
      XXXX    -173.9462   XXXY     -94.8357   XXYY     -87.0854
      XYYY    -108.3192   YYYY    -335.0014   XXXZ     -82.2398
      XXYZ     -31.6222   XYYZ     -40.5247   YYYZ    -106.0607
      XXZZ    -302.6725   XYZZ     -45.5749   YYZZ    -355.8276
      XZZZ    -139.7072   YZZZ    -137.6945   ZZZZ   -1740.3760
 -----------------------------------------------------------------
Archival summary:
1\1\centos77-c5\SP\ProcedureUnspecified\BasisUnspecified\42(3)\shihchen\MonJul1315:10:462020MonJul1315:10:462020\0\\#,ProcedureUnspecified,BasisUnspecified,\\0,3\N\O,1,1.18339\O,1,1.19032,2,132.087\O,1,1.42048,2,119.081,3,-179.712,0\N,4,1.64349,1,111.633,2,-67.4106,0\O,5,1.16839,4,120.904,1,95.6949,0\\\@

 Total job time:  19.55s(wall), 106.88s(cpu) 
 Mon Jul 13 15:10:46 2020

        *************************************************************
        *                                                           *
        *  Thank you very much for using Q-Chem.  Have a nice day.  *
        *                                                           *
        *************************************************************


