                  Welcome to Q-Chem
     A Quantum Leap Into The Future Of Chemistry


 Q-Chem 5.3 (devel), Q-Chem, Inc., Pleasanton, CA (2020)

 Yihan Shao,  Zhengting Gan,  E. Epifanovsky,  A. T. B. Gilbert,  M. Wormit,  
 J. Kussmann,  A. W. Lange,  A. Behn,  Jia Deng,  Xintian Feng,  D. Ghosh,  
 M. Goldey,  P. R. Horn,  L. D. Jacobson,  I. Kaliman,  T. Kus,  A. Landau,  
 Jie Liu,  E. I. Proynov,  R. M. Richard,  R. P. Steele,  E. J. Sundstrom,  
 H. L. Woodcock III,  P. M. Zimmerman,  D. Zuev,  B. Alam,  B. Albrecht,  
 E. Alguire,  S. A. Baeppler,  D. Barton,  Z. Benda,  Y. A. Bernard,  
 E. J. Berquist,  K. B. Bravaya,  H. Burton,  K. Carter-Fenk,  D. Casanova,  
 Chun-Min Chang,  Yunqing Chen,  A. Chien,  K. D. Closser,  M. P. Coons,  
 S. Coriani,  S. Dasgupta,  A. L. Dempwolff,  M. Diedenhofen,  Hainam Do,  
 R. G. Edgar,  Po-Tung Fang,  S. Faraji,  S. Fatehi,  Qingguo Feng,  
 J. Fosso-Tande,  J. Gayvert,  Qinghui Ge,  A. Ghysels,  G. Gidofalvi,  
 J. Gomes,  J. Gonthier,  A. Gunina,  D. Hait,  M. W. D. Hanson-Heine,  
 P. H. P. Harbach,  A. W. Hauser,  M. F. Herbst,  J. E. Herr,  
 E. G. Hohenstein,  Z. C. Holden,  Kerwin Hui,  B. C. Huynh,  T.-C. Jagau,  
 Hyunjun Ji,  B. Kaduk,  K. Khistyaev,  Jaehoon Kim,  P. Klunzinger,  K. Koh,  
 D. Kosenkov,  L. Koulias,  T. Kowalczyk,  C. M. Krauter,  A. Kunitsa,  
 Ka Un Lao,  A. Laurent,  K. V. Lawler,  Joonho Lee,  D. Lefrancois,  
 S. Lehtola,  D. S. Levine,  Yi-Pei Li,  You-Sheng Lin,  Fenglai Liu,  
 Kuan-Yu Liu,  E. Livshits,  M. Loipersberger,  A. Luenser,  P. Manohar,  
 E. Mansoor,  S. F. Manzer,  Shan-Ping Mao,  Yuezhi Mao,  N. Mardirossian,  
 A. V. Marenich,  T. Markovich,  L. A. Martinez-Martinez,  S. A. Maurer,  
 N. J. Mayhall,  S. C. McKenzie,  J.-M. Mewes,  P. Morgante,  A. F. Morrison,  
 J. W. Mullinax,  K. Nanda,  T. S. Nguyen-Beck,  R. Olivares-Amaya,  
 K. J. Oosterbaan,  J. A. Parkhill,  S. K. Paul,  F. Pavosevic,  Zheng Pei,  
 T. M. Perrine,  F. Plasser,  P. Pokhilko,  S. Prager,  A. Prociuk,  
 E. Ramos,  B. Rana,  D. R. Rehn,  F. Rob,  M. Scheurer,  M. Schneider,  
 N. Sergueev,  S. M. Sharada,  S. Sharma,  D. W. Small,  T. Stauch,  
 C. J. Stein,  T. Stein,  Yu-Chuan Su,  S. P. Veccham,  Zhen Tao,  
 A. J. W. Thom,  A. Tkatchenko,  T. Tsuchimochi,  N. M. Tubman,  L. Vogt,  
 M. L. Vidal,  O. Vydrov,  M. A. Watson,  J. Wenzel,  M. de Wergifosse,  
 T. A. Wesolowski,  A. White,  J. Witte,  A. Yamada,  Jun Yang,  K. Yao,  
 S. Yeganeh,  S. R. Yost,  Zhi-Qiang You,  A. Zech,  Igor Ying Zhang,  
 Xing Zhang,  Yan Zhao,  Ying Zhu,  B. R. Brooks,  G. K. L. Chan,  
 C. J. Cramer,  M. S. Gordon,  W. J. Hehre,  A. Klamt,  M. W. Schmidt,  
 C. D. Sherrill,  D. G. Truhlar,  A. Aspuru-Guzik,  R. Baer,  A. T. Bell,  
 N. A. Besley,  Jeng-Da Chai,  A. E. DePrince, III,  R. A. DiStasio Jr.,  
 A. Dreuw,  B. D. Dunietz,  T. R. Furlani,  Chao-Ping Hsu,  Yousung Jung,  
 Jing Kong,  D. S. Lambrecht,  WanZhen Liang,  C. Ochsenfeld,  
 V. A. Rassolov,  L. V. Slipchenko,  J. E. Subotnik,  T. Van Voorhis,  
 J. M. Herbert,  A. I. Krylov,  P. M. W. Gill,  M. Head-Gordon

 Contributors to earlier versions of Q-Chem not listed above: 
 R. D. Adamson,  B. Austin,  J. Baker,  G. J. O. Beran,  K. Brandhorst,  
 S. T. Brown,  E. F. C. Byrd,  A. K. Chakraborty,  C.-L. Cheng,  
 Siu Hung Chien,  D. M. Chipman,  D. L. Crittenden,  H. Dachsel,  
 R. J. Doerksen,  A. D. Dutoi,  L. Fusti-Molnar,  W. A. Goddard III,  
 A. Golubeva-Zadorozhnaya,  S. R. Gwaltney,  G. Hawkins,  A. Heyden,  
 S. Hirata,  G. Kedziora,  F. J. Keil,  C. Kelley,  Jihan Kim,  R. A. King,  
 R. Z. Khaliullin,  P. P. Korambath,  W. Kurlancheek,  A. M. Lee,  M. S. Lee,  
 S. V. Levchenko,  Ching Yeh Lin,  D. Liotard,  R. C. Lochan,  I. Lotan,  
 P. E. Maslen,  N. Nair,  D. P. O'Neill,  D. Neuhauser,  E. Neuscamman,  
 C. M. Oana,  R. Olson,  B. Peters,  R. Peverati,  P. A. Pieniazek,  
 Y. M. Rhee,  J. Ritchie,  M. A. Rohrdanz,  E. Rosta,  N. J. Russ,  
 H. F. Schaefer III,  N. E. Schultz,  N. Shenvi,  A. C. Simmonett,  A. Sodt,  
 D. Stuck,  K. S. Thanthiriwatte,  V. Vanovschi,  Tao Wang,  A. Warshel,  
 C. F. Williams,  Q. Wu,  X. Xu,  W. Zhang

 Please cite Q-Chem as follows:
 Y. Shao et al., Mol. Phys. 113, 184-215 (2015)
 DOI: 10.1080/00268976.2014.952696

 Q-Chem 5.3.0 for Intel X86 EM64T Linux

 Parts of Q-Chem use Armadillo 9.800.1 (Horizon Scraper).
 http://arma.sourceforge.net/

 Q-Chem begins on Mon Jul 13 15:06:05 2020  

Host: centos77-c5
0

     Scratch files written to /tmp/29025.centos77-h1/qchem40469//
Processing $rem in /opt/qchem-5.3.0-intel2020u1//config/preferences:
Processing $rem in /home/shihchengli/.qchemrc:

Checking the input file for inconsistencies... 	...done.

--------------------------------------------------------------
User input:
--------------------------------------------------------------
$rem
   JOBTYPE  sp
   EXCHANGE   omegaB97X-D
   BASIS   6-311+G(2df,2pd)
   UNRESTRICTED   True
   max_scf_cycles   250
   geom_opt_max_cycles   1500
   basis2 6-31G*
   scf_algorithm rca_diis
   SYM_IGNORE  TRUE
   print_input   true
   geom_opt_dmax   80
   pop_mulliken false
   XC_GRID 000075000302
$end

$molecule
0 3
N       0.8929886349     1.1088314395     2.4654024869
O       -0.0363679169     1.6125494641     3.0126029446
O       1.9133196143     1.5535920204     2.0634919638
N       -0.1506550305     -0.8951825918     3.6207563559
O       -1.3139906492     -1.0037905790     3.6208211502
O       0.6396964776     -0.2810106434     2.3172249886
$end
--------------------------------------------------------------
 ----------------------------------------------------------------
             Standard Nuclear Orientation (Angstroms)
    I     Atom           X                Y                Z
 ----------------------------------------------------------------
    1      N       0.8929886349     1.1088314395     2.4654024869
    2      O      -0.0363679169     1.6125494641     3.0126029446
    3      O       1.9133196143     1.5535920204     2.0634919638
    4      N      -0.1506550305    -0.8951825918     3.6207563559
    5      O      -1.3139906492    -1.0037905790     3.6208211502
    6      O       0.6396964776    -0.2810106434     2.3172249886
 ----------------------------------------------------------------
 Nuclear Repulsion Energy =         232.73674750 hartrees
 There are       24 alpha and       22 beta electrons
 Requested basis set is 6-311+G(2df,2pd)
 There are 48 shells and 204 basis functions

 Total QAlloc Memory Limit   2000 MB
 Mega-Array Size       188 MB
 MEM_STATIC part       192 MB

                       Distance Matrix (Angstroms)
             N (  1)   O (  2)   O (  3)   N (  4)   O (  5)
   O (  2)  1.190321
   O (  3)  1.183393  2.169232
   N (  4)  2.537737  2.582950  3.561118
   O (  5)  3.266332  2.974472  4.402387  1.168394
   O (  6)  1.420484  2.127483  2.247724  1.643489  2.457370
 
 A cutoff of  1.0D-09 yielded   1032 shell pairs
 There are     19280 function pairs (     25333 Cartesian)
 Smallest overlap matrix eigenvalue = 5.50E-04

 Scale SEOQF with 1.000000e-01/1.000000e-01/1.000000e-01

 Standard Electronic Orientation quadrupole field applied
 Nucleus-field energy     =    -0.0000000353 hartrees
 Requested basis set is 6-31G(d)
 There are 24 shells and 84 basis functions
 A cutoff of  1.0D-09 yielded    269 shell pairs
 There are      3538 function pairs (      4066 Cartesian)
 Smallest overlap matrix eigenvalue = 4.83E-03
 Guess from superposition of atomic densities
 Warning:  Energy on first SCF cycle will be non-variational
 SAD guess density has 46.000000 electrons
 Long-range K will be added via erf
 Coulomb attenuation parameter = 0.2 bohr**(-1)
 An unrestricted hybrid HF-DFT SCF calculation will be
 performed using Relaxed Constraint Minimization + Pulay DIIS
 Exchange:     0.2220 Hartree-Fock + 1.0000 wB97X-D + LR-HF
 Correlation:  1.0000 wB97X-D
 Using Euler-Maclaurin-Lebedev (75,302) quadrature formula
 Dispersion:   Grimme D
 SCF converges when DIIS error is below 1.0E-04
 using 6 threads for integral computing
 -------------------------------------------------------
 OpenMP Integral computing Module                
 Release: version 1.0, May 2013, Q-Chem Inc. Pittsburgh 
 -------------------------------------------------------
 using 6 threads for integral computing
 -------------------------------------------------------
 OpenMP Integral computing Module                
 Release: version 1.0, May 2013, Q-Chem Inc. Pittsburgh 
 -------------------------------------------------------
 ---------------------------------------
  Cycle       Energy         DIIS Error
 ---------------------------------------
    1    -411.0352885205      8.85E-02
    2    -409.6429595649      1.97E-02
    3    -409.7496037591      4.33E-03
    4    -409.9006026924      4.52E-03
    5    -409.9063845887      6.16E-04 Done RCA. Switching to DIIS
    6    -409.9141069675      4.96E-04
    7    -409.9144626268      1.27E-04
    8    -409.9145298682      6.54E-05 Convergence criterion met
 ---------------------------------------
 <S^2> = 2.0162
 SCF time:  CPU 14.77 s  wall 2.48 s
 SCF   energy in the small basis set = -409.91452987
 Total energy in the small basis set = -409.91452987
 ----------------------------------------------------
  Cycle       Energy    
 ----------------------------------------------------
    1     -41.7635043092     -4.18E+01
 Long-range K will be added via erf
 Coulomb attenuation parameter = 0.2 bohr**(-1)
 An unrestricted hybrid HF-DFT SCF calculation will be
 performed using Relaxed Constraint Minimization + Pulay DIIS
 Exchange:     0.2220 Hartree-Fock + 1.0000 wB97X-D + LR-HF
 Correlation:  1.0000 wB97X-D
 Using Euler-Maclaurin-Lebedev (75,302) quadrature formula
 Dispersion:   Grimme D
 SCF converges when DIIS error is below 1.0E-05
 Basis2 calculation detected. Using small basis as guess for larger.
 SCFMinFind is unable to tell whether the solution found is close.
 Resetting ReadMinima to 0 and attempting to follow guess.
 SCFMinFind following SCF Guess.
 using 6 threads for integral computing
 -------------------------------------------------------
 OpenMP Integral computing Module                
 Release: version 1.0, May 2013, Q-Chem Inc. Pittsburgh 
 -------------------------------------------------------
 using 6 threads for integral computing
 -------------------------------------------------------
 OpenMP Integral computing Module                
 Release: version 1.0, May 2013, Q-Chem Inc. Pittsburgh 
 -------------------------------------------------------
 ---------------------------------------
  Cycle       Energy         DIIS Error
 ---------------------------------------
    1    -409.9957296081      8.08E-03
    2    -410.0049115066      4.38E-03
    3    -410.0290044466      1.14E-03
    4    -410.0637002896      1.18E-03
    5    -410.0658831566      1.72E-04 Done RCA. Switching to DIIS
    6    -410.0692180223      1.62E-04
    7    -410.0695711843      6.45E-05
    8    -410.0698048109      3.92E-05
    9    -410.0699383116      2.27E-05
   10    -410.0700285419      1.41E-05
   11    -410.0700739754      8.82E-06 Convergence criterion met
 ---------------------------------------
 <S^2> = 2.0190
 SCF time:  CPU 71.94 s  wall 12.02 s
 SCF   energy in the final basis set = -410.07007398
 Total energy in the final basis set = -410.07007398
 
 --------------------------------------------------------------
 
                    Orbital Energies (a.u.)
 --------------------------------------------------------------
 
 Alpha MOs
 -- Occupied --
-19.4057 -19.4050 -19.3548 -19.3345 -14.7691 -14.6234  -1.4417  -1.3723
 -1.2582  -1.2022  -0.8768  -0.7762  -0.7207  -0.7150  -0.6775  -0.6579
 -0.6376  -0.6311  -0.5096  -0.4858  -0.4624  -0.4587  -0.4344  -0.3427
 -- Virtual --
 -0.0298   0.0108   0.0812   0.1164   0.1256   0.1362   0.1397   0.1670
  0.1771   0.1855   0.2332   0.2362   0.2550   0.2683   0.2858   0.2940
  0.3002   0.3244   0.3401   0.3482   0.3585   0.3647   0.3664   0.3817
  0.4090   0.4266   0.4510   0.4575   0.5002   0.5285   0.7268   0.7760
  0.7969   0.8302   0.8389   0.8634   0.9301   0.9401   0.9852   0.9991
  1.0155   1.0423   1.0579   1.0653   1.0895   1.1004   1.1186   1.1358
  1.1415   1.1691   1.1731   1.2155   1.2240   1.2344   1.2979   1.3231
  1.4133   1.4386   1.5380   1.5624   1.5697   1.5885   1.5933   1.6210
  1.6466   1.6748   1.7153   1.7561   1.8092   1.9327   1.9531   1.9665
  1.9923   2.1267   2.2077   2.2693   2.3232   2.3554   2.4386   2.5029
  2.5270   2.5543   2.6831   2.8033   3.4784   3.5351   3.5379   3.6224
  3.6510   3.6667   3.7102   3.7360   3.7519   3.7641   3.7849   3.9095
  3.9595   4.0053   4.0169   4.0519   4.0878   4.4199   4.4456   4.4873
  4.5122   4.5885   4.6386   4.6769   4.6952   4.7143   4.7402   4.7718
  4.8256   4.9000   4.9989   5.0118   5.0218   5.0404   5.0446   5.0478
  5.0632   5.0824   5.1015   5.1067   5.1184   5.1322   5.1631   5.1996
  5.2182   5.2611   5.3095   5.3651   5.4108   5.4286   5.4636   5.5041
  5.5412   5.5907   5.6423   5.6625   5.8088   5.9023   6.0196   6.1164
  6.2925   6.5393   6.6516   6.6735   6.6771   6.7274   6.7342   6.7701
  6.8146   6.8311   6.8513   6.9067   6.9704   7.0390   7.0799   7.1432
  7.1644   7.1768   7.2017   7.2392   7.3125   7.3731   7.4697   7.5473
  7.6360   7.6901   7.7905   7.8762   7.9148   8.2938  35.9081  36.1270
 49.9902  50.1607  50.2459  50.2594
 
 Beta MOs
 -- Occupied --
-19.3924 -19.3867 -19.3535 -19.3345 -14.7691 -14.6055  -1.4373  -1.3338
 -1.2550  -1.1691  -0.8325  -0.7450  -0.7113  -0.7025  -0.6704  -0.6038
 -0.5838  -0.5614  -0.4881  -0.4671  -0.4577  -0.4306
 -- Virtual --
 -0.1603  -0.0211  -0.0100   0.0569   0.0915   0.1213   0.1365   0.1418
  0.1463   0.1710   0.1804   0.1899   0.2364   0.2403   0.2564   0.2730
  0.2882   0.2973   0.3040   0.3264   0.3415   0.3510   0.3608   0.3680
  0.3695   0.3886   0.4131   0.4344   0.4563   0.4635   0.5152   0.5314
  0.7396   0.7927   0.8031   0.8441   0.8475   0.8748   0.9374   0.9464
  0.9969   1.0063   1.0240   1.0623   1.0702   1.0772   1.0956   1.1175
  1.1257   1.1466   1.1536   1.1712   1.1866   1.2297   1.2348   1.2486
  1.3133   1.3366   1.4213   1.4523   1.5435   1.5716   1.5810   1.5973
  1.6098   1.6350   1.6661   1.6937   1.7322   1.7633   1.8138   1.9365
  1.9652   1.9813   2.0065   2.1416   2.2217   2.2811   2.3377   2.3637
  2.4564   2.5142   2.5327   2.5586   2.6898   2.8060   3.4934   3.5670
  3.5724   3.6372   3.6655   3.6768   3.7153   3.7461   3.7627   3.7953
  3.8524   3.9285   3.9901   4.0173   4.0202   4.0680   4.1001   4.4223
  4.4528   4.4900   4.5144   4.6108   4.6548   4.7057   4.7308   4.7437
  4.7559   4.8127   4.8612   4.9512   5.0215   5.0429   5.0484   5.0537
  5.0574   5.0590   5.0838   5.0919   5.1102   5.1190   5.1414   5.1589
  5.1924   5.2204   5.2338   5.2873   5.3294   5.3697   5.4279   5.4445
  5.4774   5.5240   5.5579   5.6119   5.6570   5.6835   5.8132   5.9148
  6.0335   6.1575   6.2974   6.5415   6.6836   6.6975   6.7129   6.7725
  6.7950   6.7991   6.8198   6.8358   6.8561   6.9093   7.0057   7.0508
  7.0901   7.1680   7.1790   7.2087   7.2339   7.2469   7.3252   7.3830
  7.4941   7.5509   7.6680   7.7198   7.7952   7.8834   7.9329   8.2949
 35.9296  36.1270  50.0045  50.1779  50.2468  50.2599
 --------------------------------------------------------------
 
 -----------------------------------------------------------------
                    Cartesian Multipole Moments
 -----------------------------------------------------------------
    Charge (ESU x 10^10)
                -0.0000
    Dipole Moment (Debye)
         X      -0.1612      Y      -0.8823      Z       0.1937
       Tot       0.9175
    Quadrupole Moments (Debye-Ang)
        XX     -33.9674     XY      -0.3874     YY     -33.9650
        XZ       0.9776     YZ      -3.2968     ZZ     -29.4765
    Octopole Moments (Debye-Ang^2)
       XXX     -35.8156    XXY     -13.0931    XYY     -12.3610
       YYY     -39.9226    XXZ     -94.1771    XYZ       0.3350
       YYZ     -96.5752    XZZ      -4.1299    YZZ     -22.7619
       ZZZ    -256.3598
    Hexadecapole Moments (Debye-Ang^3)
      XXXX    -242.6980   XXXY     -88.0858   XXYY     -91.5907
      XYYY     -85.1153   YYYY    -294.5139   XXXZ     -43.2344
      XXYZ     -19.1147   XYYZ     -15.3930   YYYZ     -72.5023
      XXZZ    -317.1097   XYZZ     -22.1565   YYZZ    -335.7557
      XZZZ     -11.4846   YZZZ     -94.9666   ZZZZ   -1560.3356
 -----------------------------------------------------------------
Archival summary:
1\1\centos77-c5\SP\ProcedureUnspecified\BasisUnspecified\42(3)\shihchen\MonJul1315:06:222020MonJul1315:06:222020\0\\#,ProcedureUnspecified,BasisUnspecified,\\0,3\N\O,1,1.18339\O,1,1.19032,2,132.087\O,1,1.42048,2,119.081,3,-179.712,0\N,4,1.64349,1,111.633,2,142.589,0\O,5,1.16839,4,120.904,1,95.6949,0\\\@

 Total job time:  16.91s(wall), 90.91s(cpu) 
 Mon Jul 13 15:06:22 2020

        *************************************************************
        *                                                           *
        *  Thank you very much for using Q-Chem.  Have a nice day.  *
        *                                                           *
        *************************************************************


