                  Welcome to Q-Chem
     A Quantum Leap Into The Future Of Chemistry


 Q-Chem 5.3 (devel), Q-Chem, Inc., Pleasanton, CA (2020)

 Yihan Shao,  Zhengting Gan,  E. Epifanovsky,  A. T. B. Gilbert,  M. Wormit,  
 J. Kussmann,  A. W. Lange,  A. Behn,  Jia Deng,  Xintian Feng,  D. Ghosh,  
 M. Goldey,  P. R. Horn,  L. D. Jacobson,  I. Kaliman,  T. Kus,  A. Landau,  
 Jie Liu,  E. I. Proynov,  R. M. Richard,  R. P. Steele,  E. J. Sundstrom,  
 H. L. Woodcock III,  P. M. Zimmerman,  D. Zuev,  B. Alam,  B. Albrecht,  
 E. Alguire,  S. A. Baeppler,  D. Barton,  Z. Benda,  Y. A. Bernard,  
 E. J. Berquist,  K. B. Bravaya,  H. Burton,  K. Carter-Fenk,  D. Casanova,  
 Chun-Min Chang,  Yunqing Chen,  A. Chien,  K. D. Closser,  M. P. Coons,  
 S. Coriani,  S. Dasgupta,  A. L. Dempwolff,  M. Diedenhofen,  Hainam Do,  
 R. G. Edgar,  Po-Tung Fang,  S. Faraji,  S. Fatehi,  Qingguo Feng,  
 J. Fosso-Tande,  J. Gayvert,  Qinghui Ge,  A. Ghysels,  G. Gidofalvi,  
 J. Gomes,  J. Gonthier,  A. Gunina,  D. Hait,  M. W. D. Hanson-Heine,  
 P. H. P. Harbach,  A. W. Hauser,  M. F. Herbst,  J. E. Herr,  
 E. G. Hohenstein,  Z. C. Holden,  Kerwin Hui,  B. C. Huynh,  T.-C. Jagau,  
 Hyunjun Ji,  B. Kaduk,  K. Khistyaev,  Jaehoon Kim,  P. Klunzinger,  K. Koh,  
 D. Kosenkov,  L. Koulias,  T. Kowalczyk,  C. M. Krauter,  A. Kunitsa,  
 Ka Un Lao,  A. Laurent,  K. V. Lawler,  Joonho Lee,  D. Lefrancois,  
 S. Lehtola,  D. S. Levine,  Yi-Pei Li,  You-Sheng Lin,  Fenglai Liu,  
 Kuan-Yu Liu,  E. Livshits,  M. Loipersberger,  A. Luenser,  P. Manohar,  
 E. Mansoor,  S. F. Manzer,  Shan-Ping Mao,  Yuezhi Mao,  N. Mardirossian,  
 A. V. Marenich,  T. Markovich,  L. A. Martinez-Martinez,  S. A. Maurer,  
 N. J. Mayhall,  S. C. McKenzie,  J.-M. Mewes,  P. Morgante,  A. F. Morrison,  
 J. W. Mullinax,  K. Nanda,  T. S. Nguyen-Beck,  R. Olivares-Amaya,  
 K. J. Oosterbaan,  J. A. Parkhill,  S. K. Paul,  F. Pavosevic,  Zheng Pei,  
 T. M. Perrine,  F. Plasser,  P. Pokhilko,  S. Prager,  A. Prociuk,  
 E. Ramos,  B. Rana,  D. R. Rehn,  F. Rob,  M. Scheurer,  M. Schneider,  
 N. Sergueev,  S. M. Sharada,  S. Sharma,  D. W. Small,  T. Stauch,  
 C. J. Stein,  T. Stein,  Yu-Chuan Su,  S. P. Veccham,  Zhen Tao,  
 A. J. W. Thom,  A. Tkatchenko,  T. Tsuchimochi,  N. M. Tubman,  L. Vogt,  
 M. L. Vidal,  O. Vydrov,  M. A. Watson,  J. Wenzel,  M. de Wergifosse,  
 T. A. Wesolowski,  A. White,  J. Witte,  A. Yamada,  Jun Yang,  K. Yao,  
 S. Yeganeh,  S. R. Yost,  Zhi-Qiang You,  A. Zech,  Igor Ying Zhang,  
 Xing Zhang,  Yan Zhao,  Ying Zhu,  B. R. Brooks,  G. K. L. Chan,  
 C. J. Cramer,  M. S. Gordon,  W. J. Hehre,  A. Klamt,  M. W. Schmidt,  
 C. D. Sherrill,  D. G. Truhlar,  A. Aspuru-Guzik,  R. Baer,  A. T. Bell,  
 N. A. Besley,  Jeng-Da Chai,  A. E. DePrince, III,  R. A. DiStasio Jr.,  
 A. Dreuw,  B. D. Dunietz,  T. R. Furlani,  Chao-Ping Hsu,  Yousung Jung,  
 Jing Kong,  D. S. Lambrecht,  WanZhen Liang,  C. Ochsenfeld,  
 V. A. Rassolov,  L. V. Slipchenko,  J. E. Subotnik,  T. Van Voorhis,  
 J. M. Herbert,  A. I. Krylov,  P. M. W. Gill,  M. Head-Gordon

 Contributors to earlier versions of Q-Chem not listed above: 
 R. D. Adamson,  B. Austin,  J. Baker,  G. J. O. Beran,  K. Brandhorst,  
 S. T. Brown,  E. F. C. Byrd,  A. K. Chakraborty,  C.-L. Cheng,  
 Siu Hung Chien,  D. M. Chipman,  D. L. Crittenden,  H. Dachsel,  
 R. J. Doerksen,  A. D. Dutoi,  L. Fusti-Molnar,  W. A. Goddard III,  
 A. Golubeva-Zadorozhnaya,  S. R. Gwaltney,  G. Hawkins,  A. Heyden,  
 S. Hirata,  G. Kedziora,  F. J. Keil,  C. Kelley,  Jihan Kim,  R. A. King,  
 R. Z. Khaliullin,  P. P. Korambath,  W. Kurlancheek,  A. M. Lee,  M. S. Lee,  
 S. V. Levchenko,  Ching Yeh Lin,  D. Liotard,  R. C. Lochan,  I. Lotan,  
 P. E. Maslen,  N. Nair,  D. P. O'Neill,  D. Neuhauser,  E. Neuscamman,  
 C. M. Oana,  R. Olson,  B. Peters,  R. Peverati,  P. A. Pieniazek,  
 Y. M. Rhee,  J. Ritchie,  M. A. Rohrdanz,  E. Rosta,  N. J. Russ,  
 H. F. Schaefer III,  N. E. Schultz,  N. Shenvi,  A. C. Simmonett,  A. Sodt,  
 D. Stuck,  K. S. Thanthiriwatte,  V. Vanovschi,  Tao Wang,  A. Warshel,  
 C. F. Williams,  Q. Wu,  X. Xu,  W. Zhang

 Please cite Q-Chem as follows:
 Y. Shao et al., Mol. Phys. 113, 184-215 (2015)
 DOI: 10.1080/00268976.2014.952696

 Q-Chem 5.3.0 for Intel X86 EM64T Linux

 Parts of Q-Chem use Armadillo 9.800.1 (Horizon Scraper).
 http://arma.sourceforge.net/

 Q-Chem begins on Mon Jul 13 15:17:01 2020  

Host: centos77-c5
0

     Scratch files written to /tmp/29025.centos77-h1/qchem109715//
Processing $rem in /opt/qchem-5.3.0-intel2020u1//config/preferences:
Processing $rem in /home/shihchengli/.qchemrc:

Checking the input file for inconsistencies... 	...done.

--------------------------------------------------------------
User input:
--------------------------------------------------------------
$rem
   JOBTYPE  sp
   EXCHANGE   omegaB97X-D
   BASIS   6-311+G(2df,2pd)
   UNRESTRICTED   True
   max_scf_cycles   250
   geom_opt_max_cycles   1500
   basis2 6-31G*
   scf_algorithm rca_diis
   SYM_IGNORE  TRUE
   print_input   true
   geom_opt_dmax   80
   pop_mulliken false
   XC_GRID 000075000302
$end

$molecule
0 3
N       0.7074810376     1.1751085952     2.4275504469
O       0.4929289036     2.0583683346     1.6589911426
O       1.7030348429     0.7971621279     2.9437368852
N       -0.3106269064     -0.6725362826     3.8381430600
O       -0.1317817219     -1.7794658245     3.5097121691
O       -0.5160450257     0.5163521594     2.7221661862
$end
--------------------------------------------------------------
 ----------------------------------------------------------------
             Standard Nuclear Orientation (Angstroms)
    I     Atom           X                Y                Z
 ----------------------------------------------------------------
    1      N       0.7074810376     1.1751085952     2.4275504469
    2      O       0.4929289036     2.0583683346     1.6589911426
    3      O       1.7030348429     0.7971621279     2.9437368852
    4      N      -0.3106269064    -0.6725362826     3.8381430600
    5      O      -0.1317817219    -1.7794658245     3.5097121691
    6      O      -0.5160450257     0.5163521594     2.7221661862
 ----------------------------------------------------------------
 Nuclear Repulsion Energy =         231.74950603 hartrees
 There are       24 alpha and       22 beta electrons
 Requested basis set is 6-311+G(2df,2pd)
 There are 48 shells and 204 basis functions

 Total QAlloc Memory Limit   2000 MB
 Mega-Array Size       188 MB
 MEM_STATIC part       192 MB

                       Distance Matrix (Angstroms)
             N (  1)   O (  2)   O (  3)   N (  4)   O (  5)
   O (  2)  1.190321
   O (  3)  1.183393  2.169232
   N (  4)  2.537737  3.585003  2.648549
   O (  5)  3.256524  4.306321  3.213393  1.168394
   O (  6)  1.420484  2.127483  2.247724  1.643489  2.457370
 
 A cutoff of  1.0D-09 yielded   1025 shell pairs
 There are     19149 function pairs (     25141 Cartesian)
 Smallest overlap matrix eigenvalue = 6.78E-04

 Scale SEOQF with 1.000000e-01/1.000000e-01/1.000000e-01

 Standard Electronic Orientation quadrupole field applied
 Nucleus-field energy     =    -0.0000000354 hartrees
 Requested basis set is 6-31G(d)
 There are 24 shells and 84 basis functions
 A cutoff of  1.0D-09 yielded    268 shell pairs
 There are      3534 function pairs (      4062 Cartesian)
 Smallest overlap matrix eigenvalue = 4.83E-03
 Guess from superposition of atomic densities
 Warning:  Energy on first SCF cycle will be non-variational
 SAD guess density has 46.000000 electrons
 Long-range K will be added via erf
 Coulomb attenuation parameter = 0.2 bohr**(-1)
 An unrestricted hybrid HF-DFT SCF calculation will be
 performed using Relaxed Constraint Minimization + Pulay DIIS
 Exchange:     0.2220 Hartree-Fock + 1.0000 wB97X-D + LR-HF
 Correlation:  1.0000 wB97X-D
 Using Euler-Maclaurin-Lebedev (75,302) quadrature formula
 Dispersion:   Grimme D
 SCF converges when DIIS error is below 1.0E-04
 using 6 threads for integral computing
 -------------------------------------------------------
 OpenMP Integral computing Module                
 Release: version 1.0, May 2013, Q-Chem Inc. Pittsburgh 
 -------------------------------------------------------
 using 6 threads for integral computing
 -------------------------------------------------------
 OpenMP Integral computing Module                
 Release: version 1.0, May 2013, Q-Chem Inc. Pittsburgh 
 -------------------------------------------------------
 ---------------------------------------
  Cycle       Energy         DIIS Error
 ---------------------------------------
    1    -411.0332355202      8.84E-02
    2    -409.6592286118      1.95E-02
    3    -409.7630624322      4.44E-03
    4    -409.9112657284      4.69E-03
    5    -409.9174756219      6.43E-04 Done RCA. Switching to DIIS
    6    -409.9257317631      5.55E-04
    7    -409.9261351545      9.32E-05 Convergence criterion met
 ---------------------------------------
 <S^2> = 2.0151
 SCF time:  CPU 13.03 s  wall 2.18 s
 SCF   energy in the small basis set = -409.92613515
 Total energy in the small basis set = -409.92613515
 ----------------------------------------------------
  Cycle       Energy    
 ----------------------------------------------------
    1     -41.7569034139     -4.18E+01
 Long-range K will be added via erf
 Coulomb attenuation parameter = 0.2 bohr**(-1)
 An unrestricted hybrid HF-DFT SCF calculation will be
 performed using Relaxed Constraint Minimization + Pulay DIIS
 Exchange:     0.2220 Hartree-Fock + 1.0000 wB97X-D + LR-HF
 Correlation:  1.0000 wB97X-D
 Using Euler-Maclaurin-Lebedev (75,302) quadrature formula
 Dispersion:   Grimme D
 SCF converges when DIIS error is below 1.0E-05
 Basis2 calculation detected. Using small basis as guess for larger.
 SCFMinFind is unable to tell whether the solution found is close.
 Resetting ReadMinima to 0 and attempting to follow guess.
 SCFMinFind following SCF Guess.
 using 6 threads for integral computing
 -------------------------------------------------------
 OpenMP Integral computing Module                
 Release: version 1.0, May 2013, Q-Chem Inc. Pittsburgh 
 -------------------------------------------------------
 using 6 threads for integral computing
 -------------------------------------------------------
 OpenMP Integral computing Module                
 Release: version 1.0, May 2013, Q-Chem Inc. Pittsburgh 
 -------------------------------------------------------
 ---------------------------------------
  Cycle       Energy         DIIS Error
 ---------------------------------------
    1    -410.0138911318      8.04E-03
    2    -410.0206693829      4.27E-03
    3    -410.0430780125      1.21E-03
    4    -410.0750077254      1.20E-03
    5    -410.0774721933      1.55E-04 Done RCA. Switching to DIIS
    6    -410.0811545478      1.54E-04
    7    -410.0813202307      5.43E-05
    8    -410.0814051911      2.20E-05
    9    -410.0814327922      1.15E-05
   10    -410.0814412806      5.54E-06 Convergence criterion met
 ---------------------------------------
 <S^2> = 2.0182
 SCF time:  CPU 65.50 s  wall 10.95 s
 SCF   energy in the final basis set = -410.08144128
 Total energy in the final basis set = -410.08144128
 
 --------------------------------------------------------------
 
                    Orbital Energies (a.u.)
 --------------------------------------------------------------
 
 Alpha MOs
 -- Occupied --
-19.4120 -19.4005 -19.3502 -19.3482 -14.7735 -14.6206  -1.4448  -1.3697
 -1.2599  -1.2079  -0.8745  -0.7772  -0.7201  -0.7184  -0.6861  -0.6564
 -0.6340  -0.6321  -0.5033  -0.4956  -0.4649  -0.4615  -0.4381  -0.3409
 -- Virtual --
 -0.0231   0.0092   0.0760   0.1152   0.1249   0.1358   0.1376   0.1699
  0.1786   0.1856   0.2271   0.2415   0.2504   0.2674   0.2713   0.2897
  0.3051   0.3261   0.3431   0.3441   0.3491   0.3603   0.3689   0.3875
  0.4011   0.4322   0.4442   0.4592   0.4923   0.5254   0.7459   0.7589
  0.8031   0.8287   0.8625   0.8746   0.9369   0.9483   0.9765   1.0140
  1.0237   1.0494   1.0575   1.0738   1.0759   1.0850   1.1195   1.1284
  1.1400   1.1581   1.1618   1.1719   1.2189   1.2412   1.2556   1.3201
  1.4458   1.4637   1.5173   1.5477   1.5676   1.5862   1.6001   1.6191
  1.6527   1.6811   1.7044   1.7886   1.8188   1.9003   1.9245   1.9352
  1.9835   2.1244   2.2016   2.2500   2.3341   2.3636   2.4448   2.5012
  2.5374   2.5649   2.6890   2.8091   3.5038   3.5371   3.5767   3.6212
  3.6301   3.6613   3.6900   3.7132   3.7237   3.7722   3.7951   3.8920
  3.9514   3.9991   4.0177   4.0759   4.0845   4.4203   4.4515   4.4816
  4.4989   4.5952   4.6450   4.6562   4.6878   4.7129   4.7384   4.7757
  4.8238   4.9075   4.9960   4.9979   5.0189   5.0260   5.0414   5.0469
  5.0618   5.0833   5.0964   5.1033   5.1239   5.1411   5.1708   5.1759
  5.2054   5.2710   5.3180   5.3832   5.4006   5.4215   5.4521   5.5048
  5.5411   5.5573   5.6290   5.6735   5.8222   5.8660   5.9884   6.1087
  6.3318   6.5332   6.6528   6.6637   6.6961   6.7274   6.7382   6.7661
  6.7916   6.8245   6.8753   6.9068   6.9513   6.9936   7.0958   7.1002
  7.1605   7.1720   7.1965   7.2724   7.3105   7.3517   7.4641   7.5662
  7.6667   7.6945   7.8163   7.8516   7.9062   8.2779  35.9141  36.1226
 49.9922  50.1651  50.2349  50.2627
 
 Beta MOs
 -- Occupied --
-19.3989 -19.3825 -19.3486 -19.3479 -14.7733 -14.6026  -1.4402  -1.3315
 -1.2574  -1.1746  -0.8305  -0.7448  -0.7162  -0.7045  -0.6735  -0.6047
 -0.5831  -0.5585  -0.4798  -0.4710  -0.4627  -0.4470
 -- Virtual --
 -0.1512  -0.0209  -0.0089   0.0610   0.0855   0.1212   0.1371   0.1404
  0.1419   0.1727   0.1821   0.1898   0.2284   0.2460   0.2532   0.2693
  0.2743   0.2917   0.3124   0.3273   0.3442   0.3460   0.3510   0.3625
  0.3706   0.3956   0.4090   0.4368   0.4473   0.4650   0.5104   0.5307
  0.7565   0.7681   0.8167   0.8473   0.8755   0.8809   0.9401   0.9555
  0.9878   1.0247   1.0289   1.0641   1.0681   1.0834   1.0879   1.1041
  1.1248   1.1405   1.1494   1.1629   1.1780   1.1853   1.2305   1.2503
  1.2716   1.3359   1.4597   1.4766   1.5221   1.5520   1.5721   1.5972
  1.6174   1.6407   1.6691   1.7073   1.7137   1.7919   1.8265   1.9110
  1.9288   1.9529   1.9992   2.1385   2.2133   2.2631   2.3479   2.3740
  2.4596   2.5149   2.5400   2.5718   2.6973   2.8130   3.5308   3.5723
  3.5915   3.6363   3.6485   3.6629   3.7057   3.7253   3.7358   3.8011
  3.8614   3.9120   3.9811   4.0142   4.0209   4.0895   4.1008   4.4229
  4.4557   4.4875   4.5015   4.6239   4.6518   4.6926   4.7189   4.7311
  4.7667   4.8135   4.8662   4.9582   5.0134   5.0152   5.0431   5.0469
  5.0553   5.0625   5.0775   5.0901   5.1118   5.1256   5.1396   5.1637
  5.1986   5.2064   5.2165   5.2983   5.3348   5.4019   5.4056   5.4356
  5.4640   5.5310   5.5571   5.5730   5.6524   5.6891   5.8271   5.8727
  6.0045   6.1465   6.3439   6.5354   6.6840   6.6981   6.7203   6.7699
  6.7916   6.7987   6.8033   6.8320   6.8776   6.9084   6.9844   7.0059
  7.1141   7.1194   7.1665   7.2053   7.2245   7.2797   7.3287   7.3662
  7.4903   7.5745   7.6947   7.7232   7.8260   7.8702   7.9129   8.2803
 35.9358  36.1229  50.0060  50.1820  50.2370  50.2627
 --------------------------------------------------------------
 
 -----------------------------------------------------------------
                    Cartesian Multipole Moments
 -----------------------------------------------------------------
    Charge (ESU x 10^10)
                -0.0000
    Dipole Moment (Debye)
         X      -0.4334      Y      -0.5496      Z       0.4739
       Tot       0.8452
    Quadrupole Moments (Debye-Ang)
        XX     -33.9041     XY      -0.2535     YY     -33.7204
        XZ      -1.7481     YZ       0.0366     ZZ     -28.6690
    Octopole Moments (Debye-Ang^2)
       XXX     -35.0400    XXY     -13.6232    XYY     -10.9880
       YYY     -35.9337    XXZ     -97.1208    XYZ       0.0663
       YYZ     -91.5203    XZZ     -16.5127    YZZ      -9.5668
       ZZZ    -254.7901
    Hexadecapole Moments (Debye-Ang^3)
      XXXX    -160.2915   XXXY     -57.3660   XXYY     -85.0078
      XYYY     -55.5131   YYYY    -354.4428   XXXZ     -83.3036
      XXYZ     -13.4031   XYYZ     -23.4617   YYYZ     -16.6531
      XXZZ    -323.4947   XYZZ     -15.9695   YYZZ    -328.3842
      XZZZ     -92.2121   YZZZ     -19.6726   ZZZZ   -1582.2426
 -----------------------------------------------------------------
Archival summary:
1\1\centos77-c5\SP\ProcedureUnspecified\BasisUnspecified\42(3)\shihchen\MonJul1315:17:162020MonJul1315:17:162020\0\\#,ProcedureUnspecified,BasisUnspecified,\\0,3\N\O,1,1.18339\O,1,1.19032,2,132.087\O,1,1.42048,2,119.081,3,-179.712,0\N,4,1.64349,1,111.633,2,2.58945,0\O,5,1.16839,4,120.904,1,-94.3051,0\\\@

 Total job time:  15.52s(wall), 82.82s(cpu) 
 Mon Jul 13 15:17:16 2020

        *************************************************************
        *                                                           *
        *  Thank you very much for using Q-Chem.  Have a nice day.  *
        *                                                           *
        *************************************************************


