                  Welcome to Q-Chem
     A Quantum Leap Into The Future Of Chemistry


 Q-Chem 5.3 (devel), Q-Chem, Inc., Pleasanton, CA (2020)

 Yihan Shao,  Zhengting Gan,  E. Epifanovsky,  A. T. B. Gilbert,  M. Wormit,  
 J. Kussmann,  A. W. Lange,  A. Behn,  Jia Deng,  Xintian Feng,  D. Ghosh,  
 M. Goldey,  P. R. Horn,  L. D. Jacobson,  I. Kaliman,  T. Kus,  A. Landau,  
 Jie Liu,  E. I. Proynov,  R. M. Richard,  R. P. Steele,  E. J. Sundstrom,  
 H. L. Woodcock III,  P. M. Zimmerman,  D. Zuev,  B. Alam,  B. Albrecht,  
 E. Alguire,  S. A. Baeppler,  D. Barton,  Z. Benda,  Y. A. Bernard,  
 E. J. Berquist,  K. B. Bravaya,  H. Burton,  K. Carter-Fenk,  D. Casanova,  
 Chun-Min Chang,  Yunqing Chen,  A. Chien,  K. D. Closser,  M. P. Coons,  
 S. Coriani,  S. Dasgupta,  A. L. Dempwolff,  M. Diedenhofen,  Hainam Do,  
 R. G. Edgar,  Po-Tung Fang,  S. Faraji,  S. Fatehi,  Qingguo Feng,  
 J. Fosso-Tande,  J. Gayvert,  Qinghui Ge,  A. Ghysels,  G. Gidofalvi,  
 J. Gomes,  J. Gonthier,  A. Gunina,  D. Hait,  M. W. D. Hanson-Heine,  
 P. H. P. Harbach,  A. W. Hauser,  M. F. Herbst,  J. E. Herr,  
 E. G. Hohenstein,  Z. C. Holden,  Kerwin Hui,  B. C. Huynh,  T.-C. Jagau,  
 Hyunjun Ji,  B. Kaduk,  K. Khistyaev,  Jaehoon Kim,  P. Klunzinger,  K. Koh,  
 D. Kosenkov,  L. Koulias,  T. Kowalczyk,  C. M. Krauter,  A. Kunitsa,  
 Ka Un Lao,  A. Laurent,  K. V. Lawler,  Joonho Lee,  D. Lefrancois,  
 S. Lehtola,  D. S. Levine,  Yi-Pei Li,  You-Sheng Lin,  Fenglai Liu,  
 Kuan-Yu Liu,  E. Livshits,  M. Loipersberger,  A. Luenser,  P. Manohar,  
 E. Mansoor,  S. F. Manzer,  Shan-Ping Mao,  Yuezhi Mao,  N. Mardirossian,  
 A. V. Marenich,  T. Markovich,  L. A. Martinez-Martinez,  S. A. Maurer,  
 N. J. Mayhall,  S. C. McKenzie,  J.-M. Mewes,  P. Morgante,  A. F. Morrison,  
 J. W. Mullinax,  K. Nanda,  T. S. Nguyen-Beck,  R. Olivares-Amaya,  
 K. J. Oosterbaan,  J. A. Parkhill,  S. K. Paul,  F. Pavosevic,  Zheng Pei,  
 T. M. Perrine,  F. Plasser,  P. Pokhilko,  S. Prager,  A. Prociuk,  
 E. Ramos,  B. Rana,  D. R. Rehn,  F. Rob,  M. Scheurer,  M. Schneider,  
 N. Sergueev,  S. M. Sharada,  S. Sharma,  D. W. Small,  T. Stauch,  
 C. J. Stein,  T. Stein,  Yu-Chuan Su,  S. P. Veccham,  Zhen Tao,  
 A. J. W. Thom,  A. Tkatchenko,  T. Tsuchimochi,  N. M. Tubman,  L. Vogt,  
 M. L. Vidal,  O. Vydrov,  M. A. Watson,  J. Wenzel,  M. de Wergifosse,  
 T. A. Wesolowski,  A. White,  J. Witte,  A. Yamada,  Jun Yang,  K. Yao,  
 S. Yeganeh,  S. R. Yost,  Zhi-Qiang You,  A. Zech,  Igor Ying Zhang,  
 Xing Zhang,  Yan Zhao,  Ying Zhu,  B. R. Brooks,  G. K. L. Chan,  
 C. J. Cramer,  M. S. Gordon,  W. J. Hehre,  A. Klamt,  M. W. Schmidt,  
 C. D. Sherrill,  D. G. Truhlar,  A. Aspuru-Guzik,  R. Baer,  A. T. Bell,  
 N. A. Besley,  Jeng-Da Chai,  A. E. DePrince, III,  R. A. DiStasio Jr.,  
 A. Dreuw,  B. D. Dunietz,  T. R. Furlani,  Chao-Ping Hsu,  Yousung Jung,  
 Jing Kong,  D. S. Lambrecht,  WanZhen Liang,  C. Ochsenfeld,  
 V. A. Rassolov,  L. V. Slipchenko,  J. E. Subotnik,  T. Van Voorhis,  
 J. M. Herbert,  A. I. Krylov,  P. M. W. Gill,  M. Head-Gordon

 Contributors to earlier versions of Q-Chem not listed above: 
 R. D. Adamson,  B. Austin,  J. Baker,  G. J. O. Beran,  K. Brandhorst,  
 S. T. Brown,  E. F. C. Byrd,  A. K. Chakraborty,  C.-L. Cheng,  
 Siu Hung Chien,  D. M. Chipman,  D. L. Crittenden,  H. Dachsel,  
 R. J. Doerksen,  A. D. Dutoi,  L. Fusti-Molnar,  W. A. Goddard III,  
 A. Golubeva-Zadorozhnaya,  S. R. Gwaltney,  G. Hawkins,  A. Heyden,  
 S. Hirata,  G. Kedziora,  F. J. Keil,  C. Kelley,  Jihan Kim,  R. A. King,  
 R. Z. Khaliullin,  P. P. Korambath,  W. Kurlancheek,  A. M. Lee,  M. S. Lee,  
 S. V. Levchenko,  Ching Yeh Lin,  D. Liotard,  R. C. Lochan,  I. Lotan,  
 P. E. Maslen,  N. Nair,  D. P. O'Neill,  D. Neuhauser,  E. Neuscamman,  
 C. M. Oana,  R. Olson,  B. Peters,  R. Peverati,  P. A. Pieniazek,  
 Y. M. Rhee,  J. Ritchie,  M. A. Rohrdanz,  E. Rosta,  N. J. Russ,  
 H. F. Schaefer III,  N. E. Schultz,  N. Shenvi,  A. C. Simmonett,  A. Sodt,  
 D. Stuck,  K. S. Thanthiriwatte,  V. Vanovschi,  Tao Wang,  A. Warshel,  
 C. F. Williams,  Q. Wu,  X. Xu,  W. Zhang

 Please cite Q-Chem as follows:
 Y. Shao et al., Mol. Phys. 113, 184-215 (2015)
 DOI: 10.1080/00268976.2014.952696

 Q-Chem 5.3.0 for Intel X86 EM64T Linux

 Parts of Q-Chem use Armadillo 9.800.1 (Horizon Scraper).
 http://arma.sourceforge.net/

 Q-Chem begins on Mon Jul 13 15:04:09 2020  

Host: centos77-c5
0

     Scratch files written to /tmp/29025.centos77-h1/qchem4426//
Processing $rem in /opt/qchem-5.3.0-intel2020u1//config/preferences:
Processing $rem in /home/shihchengli/.qchemrc:

Checking the input file for inconsistencies... 	...done.

--------------------------------------------------------------
User input:
--------------------------------------------------------------
$rem
   JOBTYPE  sp
   EXCHANGE   omegaB97X-D
   BASIS   6-311+G(2df,2pd)
   UNRESTRICTED   True
   max_scf_cycles   250
   geom_opt_max_cycles   1500
   basis2 6-31G*
   scf_algorithm rca_diis
   SYM_IGNORE  TRUE
   print_input   true
   geom_opt_dmax   80
   pop_mulliken false
   XC_GRID 000075000302
$end

$molecule
0 3
N       0.8063431443     1.1525185037     2.4546791439
O       -0.0707902104     1.9534678789     2.5320158488
O       1.9756437652     1.2387760785     2.6150382385
N       0.0126594722     -1.0516610548     3.4302638933
O       -1.0270870353     -1.0916292896     3.9617478545
O       0.2482219941     -0.1064830068     2.1065549109
$end
--------------------------------------------------------------
 ----------------------------------------------------------------
             Standard Nuclear Orientation (Angstroms)
    I     Atom           X                Y                Z
 ----------------------------------------------------------------
    1      N       0.8063431443     1.1525185037     2.4546791439
    2      O      -0.0707902104     1.9534678789     2.5320158488
    3      O       1.9756437652     1.2387760785     2.6150382385
    4      N       0.0126594722    -1.0516610548     3.4302638933
    5      O      -1.0270870353    -1.0916292896     3.9617478545
    6      O       0.2482219941    -0.1064830068     2.1065549109
 ----------------------------------------------------------------
 Nuclear Repulsion Energy =         230.87410166 hartrees
 There are       24 alpha and       22 beta electrons
 Requested basis set is 6-311+G(2df,2pd)
 There are 48 shells and 204 basis functions

 Total QAlloc Memory Limit   2000 MB
 Mega-Array Size       188 MB
 MEM_STATIC part       192 MB

                       Distance Matrix (Angstroms)
             N (  1)   O (  2)   O (  3)   N (  4)   O (  5)
   O (  2)  1.190321
   O (  3)  1.183393  2.169232
   N (  4)  2.537737  3.137613  3.124740
   O (  5)  3.266332  3.497321  4.032469  1.168394
   O (  6)  1.420484  2.127483  2.247724  1.643489  2.457370
 
 A cutoff of  1.0D-09 yielded   1021 shell pairs
 There are     19079 function pairs (     25049 Cartesian)
 Smallest overlap matrix eigenvalue = 3.62E-04

 Scale SEOQF with 1.000000e-01/1.000000e-01/1.000000e-01

 Standard Electronic Orientation quadrupole field applied
 Nucleus-field energy     =    -0.0000000354 hartrees
 Requested basis set is 6-31G(d)
 There are 24 shells and 84 basis functions
 A cutoff of  1.0D-09 yielded    264 shell pairs
 There are      3504 function pairs (      4030 Cartesian)
 Smallest overlap matrix eigenvalue = 5.16E-03
 Guess from superposition of atomic densities
 Warning:  Energy on first SCF cycle will be non-variational
 SAD guess density has 46.000000 electrons
 Long-range K will be added via erf
 Coulomb attenuation parameter = 0.2 bohr**(-1)
 An unrestricted hybrid HF-DFT SCF calculation will be
 performed using Relaxed Constraint Minimization + Pulay DIIS
 Exchange:     0.2220 Hartree-Fock + 1.0000 wB97X-D + LR-HF
 Correlation:  1.0000 wB97X-D
 Using Euler-Maclaurin-Lebedev (75,302) quadrature formula
 Dispersion:   Grimme D
 SCF converges when DIIS error is below 1.0E-04
 using 6 threads for integral computing
 -------------------------------------------------------
 OpenMP Integral computing Module                
 Release: version 1.0, May 2013, Q-Chem Inc. Pittsburgh 
 -------------------------------------------------------
 using 6 threads for integral computing
 -------------------------------------------------------
 OpenMP Integral computing Module                
 Release: version 1.0, May 2013, Q-Chem Inc. Pittsburgh 
 -------------------------------------------------------
 ---------------------------------------
  Cycle       Energy         DIIS Error
 ---------------------------------------
    1    -411.0289859760      8.84E-02
    2    -409.6383681997      1.97E-02
    3    -409.7458881912      4.31E-03
    4    -409.8983956710      4.60E-03
    5    -409.9044475125      6.25E-04 Done RCA. Switching to DIIS
    6    -409.9127572085      4.92E-04
    7    -409.9132071746      1.72E-04
    8    -409.9133253663      9.01E-05 Convergence criterion met
 ---------------------------------------
 <S^2> = 2.0183
 SCF time:  CPU 14.34 s  wall 2.41 s
 SCF   energy in the small basis set = -409.91332537
 Total energy in the small basis set = -409.91332537
 ----------------------------------------------------
  Cycle       Energy    
 ----------------------------------------------------
    1     -41.7591978230     -4.18E+01
 Long-range K will be added via erf
 Coulomb attenuation parameter = 0.2 bohr**(-1)
 An unrestricted hybrid HF-DFT SCF calculation will be
 performed using Relaxed Constraint Minimization + Pulay DIIS
 Exchange:     0.2220 Hartree-Fock + 1.0000 wB97X-D + LR-HF
 Correlation:  1.0000 wB97X-D
 Using Euler-Maclaurin-Lebedev (75,302) quadrature formula
 Dispersion:   Grimme D
 SCF converges when DIIS error is below 1.0E-05
 Basis2 calculation detected. Using small basis as guess for larger.
 SCFMinFind is unable to tell whether the solution found is close.
 Resetting ReadMinima to 0 and attempting to follow guess.
 SCFMinFind following SCF Guess.
 using 6 threads for integral computing
 -------------------------------------------------------
 OpenMP Integral computing Module                
 Release: version 1.0, May 2013, Q-Chem Inc. Pittsburgh 
 -------------------------------------------------------
 using 6 threads for integral computing
 -------------------------------------------------------
 OpenMP Integral computing Module                
 Release: version 1.0, May 2013, Q-Chem Inc. Pittsburgh 
 -------------------------------------------------------
 ---------------------------------------
  Cycle       Energy         DIIS Error
 ---------------------------------------
    1    -409.9840367155      8.15E-03
    2    -409.9880017117      4.77E-03
    3    -410.0166065024      1.35E-03
    4    -410.0586615079      1.42E-03
    5    -410.0620505365      1.82E-04 Done RCA. Switching to DIIS
    6    -410.0671542547      1.83E-04
    7    -410.0676845968      8.20E-05
    8    -410.0682681213      7.13E-05
    9    -410.0686615276      4.40E-05
   10    -410.0690282025      3.09E-05
   11    -410.0692466210      1.75E-05
   12    -410.0692996532      1.42E-05
   13    -410.0693118593      4.88E-06 Convergence criterion met
 ---------------------------------------
 <S^2> = 2.0206
 SCF time:  CPU 82.24 s  wall 13.74 s
 SCF   energy in the final basis set = -410.06931186
 Total energy in the final basis set = -410.06931186
 
 --------------------------------------------------------------
 
                    Orbital Energies (a.u.)
 --------------------------------------------------------------
 
 Alpha MOs
 -- Occupied --
-19.4046 -19.3977 -19.3519 -19.3511 -14.7715 -14.6239  -1.4452  -1.3684
 -1.2607  -1.2062  -0.8753  -0.7784  -0.7279  -0.7148  -0.6788  -0.6508
 -0.6335  -0.6305  -0.5244  -0.4841  -0.4677  -0.4575  -0.4363  -0.3408
 -- Virtual --
 -0.0426   0.0168   0.0820   0.1185   0.1245   0.1320   0.1416   0.1722
  0.1767   0.1837   0.2292   0.2378   0.2443   0.2712   0.2789   0.2826
  0.2928   0.3330   0.3376   0.3554   0.3608   0.3638   0.3713   0.3900
  0.3929   0.4263   0.4508   0.4608   0.4998   0.5238   0.7204   0.7726
  0.8007   0.8330   0.8498   0.8686   0.9079   0.9267   0.9884   1.0050
  1.0266   1.0279   1.0658   1.0833   1.0880   1.0976   1.1067   1.1148
  1.1219   1.1602   1.1872   1.1935   1.2215   1.2568   1.3018   1.3339
  1.4081   1.4246   1.5143   1.5335   1.5583   1.5632   1.6057   1.6161
  1.6592   1.6833   1.7188   1.7755   1.8276   1.9004   1.9414   1.9620
  1.9795   2.1392   2.1843   2.2628   2.2912   2.3810   2.4420   2.5023
  2.5286   2.5397   2.6801   2.7868   3.4255   3.5352   3.5422   3.5985
  3.6603   3.6759   3.7084   3.7186   3.7689   3.7783   3.8906   3.9113
  3.9223   4.0000   4.0119   4.0355   4.0686   4.4156   4.4620   4.4853
  4.4987   4.5802   4.6288   4.6770   4.6928   4.7104   4.7148   4.7702
  4.8591   4.8814   5.0000   5.0105   5.0187   5.0332   5.0380   5.0409
  5.0626   5.0807   5.0850   5.1065   5.1352   5.1485   5.1634   5.1832
  5.1949   5.2647   5.2777   5.3496   5.4129   5.4406   5.4582   5.4880
  5.5352   5.5950   5.6207   5.7060   5.7911   5.9413   5.9775   6.1183
  6.3138   6.5334   6.6412   6.6556   6.7064   6.7288   6.7478   6.7620
  6.8057   6.8133   6.8568   6.9060   6.9541   7.0495   7.0743   7.1124
  7.1581   7.1773   7.1850   7.2622   7.3134   7.3775   7.4506   7.5699
  7.5948   7.7022   7.7954   7.8477   7.9376   8.2819  35.9146  36.1264
 49.9703  50.1651  50.2336  50.2530
 
 Beta MOs
 -- Occupied --
-19.3907 -19.3808 -19.3523 -19.3486 -14.7717 -14.6056  -1.4408  -1.3315
 -1.2581  -1.1708  -0.8320  -0.7500  -0.7137  -0.7013  -0.6747  -0.5969
 -0.5833  -0.5617  -0.4992  -0.4689  -0.4626  -0.4254
 -- Virtual --
 -0.1582  -0.0322  -0.0071   0.0540   0.0936   0.1233   0.1347   0.1393
  0.1468   0.1751   0.1809   0.1876   0.2310   0.2411   0.2466   0.2745
  0.2807   0.2868   0.2970   0.3339   0.3402   0.3572   0.3629   0.3659
  0.3745   0.3921   0.4058   0.4286   0.4605   0.4642   0.5100   0.5300
  0.7348   0.7811   0.8131   0.8441   0.8617   0.8805   0.9230   0.9282
  0.9998   1.0102   1.0371   1.0451   1.0797   1.0890   1.0966   1.1099
  1.1143   1.1286   1.1311   1.1719   1.1942   1.2095   1.2386   1.2672
  1.3159   1.3474   1.4132   1.4368   1.5244   1.5436   1.5661   1.5815
  1.6190   1.6310   1.6727   1.6978   1.7360   1.7792   1.8344   1.9124
  1.9528   1.9779   1.9880   2.1614   2.1940   2.2788   2.3015   2.3894
  2.4586   2.5126   2.5340   2.5468   2.6852   2.7892   3.4422   3.5716
  3.5780   3.6073   3.6810   3.6865   3.7125   3.7295   3.7980   3.8440
  3.9072   3.9287   3.9331   4.0190   4.0241   4.0481   4.0835   4.4174
  4.4657   4.4948   4.5022   4.6027   4.6369   4.6967   4.7272   4.7318
  4.7590   4.8124   4.8920   4.9322   5.0169   5.0358   5.0403   5.0488
  5.0513   5.0564   5.0771   5.0941   5.1012   5.1265   5.1546   5.1674
  5.1911   5.2031   5.2194   5.2855   5.3010   5.3606   5.4215   5.4541
  5.4720   5.5097   5.5501   5.6178   5.6419   5.7230   5.7949   5.9658
  5.9851   6.1513   6.3222   6.5364   6.6621   6.7003   6.7348   6.7655
  6.7872   6.8028   6.8125   6.8215   6.8609   6.9078   6.9903   7.0639
  7.0895   7.1414   7.1938   7.1976   7.2077   7.2664   7.3241   7.3862
  7.4730   7.5779   7.6287   7.7302   7.7987   7.8541   7.9580   8.2832
 35.9367  36.1263  49.9851  50.1807  50.2359  50.2529
 --------------------------------------------------------------
 
 -----------------------------------------------------------------
                    Cartesian Multipole Moments
 -----------------------------------------------------------------
    Charge (ESU x 10^10)
                -0.0000
    Dipole Moment (Debye)
         X      -0.0813      Y      -0.6799      Z       0.0417
       Tot       0.6860
    Quadrupole Moments (Debye-Ang)
        XX     -34.5366     XY      -0.3265     YY     -33.5039
        XZ       0.0135     YZ      -2.5951     ZZ     -30.4203
    Octopole Moments (Debye-Ang^2)
       XXX     -37.3673    XXY     -13.3108    XYY     -10.6585
       YYY     -40.5039    XXZ     -98.5474    XYZ      -2.4601
       YYZ     -95.1148    XZZ      -8.0838    YZZ     -18.4785
       ZZZ    -262.1091
    Hexadecapole Moments (Debye-Ang^3)
      XXXX    -215.8246   XXXY     -75.3507   XXYY     -89.7942
      XYYY     -69.8069   YYYY    -322.1233   XXXZ     -72.4926
      XXYZ     -21.2551   XYYZ     -20.0317   YYYZ     -67.7870
      XXZZ    -331.6395   XYZZ     -32.5401   YYZZ    -334.8352
      XZZZ     -39.4187   YZZZ     -64.9126   ZZZZ   -1599.8251
 -----------------------------------------------------------------
Archival summary:
1\1\centos77-c5\SP\ProcedureUnspecified\BasisUnspecified\42(3)\shihchen\MonJul1315:04:282020MonJul1315:04:282020\0\\#,ProcedureUnspecified,BasisUnspecified,\\0,3\N\O,1,1.18339\O,1,1.19032,2,132.087\O,1,1.42048,2,119.081,3,-179.712,0\N,4,1.64349,1,111.633,2,82.5894,0\O,5,1.16839,4,120.904,1,95.6949,0\\\@

 Total job time:  18.43s(wall), 100.55s(cpu) 
 Mon Jul 13 15:04:28 2020

        *************************************************************
        *                                                           *
        *  Thank you very much for using Q-Chem.  Have a nice day.  *
        *                                                           *
        *************************************************************


