                  Welcome to Q-Chem
     A Quantum Leap Into The Future Of Chemistry


 Q-Chem 5.3 (devel), Q-Chem, Inc., Pleasanton, CA (2020)

 Yihan Shao,  Zhengting Gan,  E. Epifanovsky,  A. T. B. Gilbert,  M. Wormit,  
 J. Kussmann,  A. W. Lange,  A. Behn,  Jia Deng,  Xintian Feng,  D. Ghosh,  
 M. Goldey,  P. R. Horn,  L. D. Jacobson,  I. Kaliman,  T. Kus,  A. Landau,  
 Jie Liu,  E. I. Proynov,  R. M. Richard,  R. P. Steele,  E. J. Sundstrom,  
 H. L. Woodcock III,  P. M. Zimmerman,  D. Zuev,  B. Alam,  B. Albrecht,  
 E. Alguire,  S. A. Baeppler,  D. Barton,  Z. Benda,  Y. A. Bernard,  
 E. J. Berquist,  K. B. Bravaya,  H. Burton,  K. Carter-Fenk,  D. Casanova,  
 Chun-Min Chang,  Yunqing Chen,  A. Chien,  K. D. Closser,  M. P. Coons,  
 S. Coriani,  S. Dasgupta,  A. L. Dempwolff,  M. Diedenhofen,  Hainam Do,  
 R. G. Edgar,  Po-Tung Fang,  S. Faraji,  S. Fatehi,  Qingguo Feng,  
 J. Fosso-Tande,  J. Gayvert,  Qinghui Ge,  A. Ghysels,  G. Gidofalvi,  
 J. Gomes,  J. Gonthier,  A. Gunina,  D. Hait,  M. W. D. Hanson-Heine,  
 P. H. P. Harbach,  A. W. Hauser,  M. F. Herbst,  J. E. Herr,  
 E. G. Hohenstein,  Z. C. Holden,  Kerwin Hui,  B. C. Huynh,  T.-C. Jagau,  
 Hyunjun Ji,  B. Kaduk,  K. Khistyaev,  Jaehoon Kim,  P. Klunzinger,  K. Koh,  
 D. Kosenkov,  L. Koulias,  T. Kowalczyk,  C. M. Krauter,  A. Kunitsa,  
 Ka Un Lao,  A. Laurent,  K. V. Lawler,  Joonho Lee,  D. Lefrancois,  
 S. Lehtola,  D. S. Levine,  Yi-Pei Li,  You-Sheng Lin,  Fenglai Liu,  
 Kuan-Yu Liu,  E. Livshits,  M. Loipersberger,  A. Luenser,  P. Manohar,  
 E. Mansoor,  S. F. Manzer,  Shan-Ping Mao,  Yuezhi Mao,  N. Mardirossian,  
 A. V. Marenich,  T. Markovich,  L. A. Martinez-Martinez,  S. A. Maurer,  
 N. J. Mayhall,  S. C. McKenzie,  J.-M. Mewes,  P. Morgante,  A. F. Morrison,  
 J. W. Mullinax,  K. Nanda,  T. S. Nguyen-Beck,  R. Olivares-Amaya,  
 K. J. Oosterbaan,  J. A. Parkhill,  S. K. Paul,  F. Pavosevic,  Zheng Pei,  
 T. M. Perrine,  F. Plasser,  P. Pokhilko,  S. Prager,  A. Prociuk,  
 E. Ramos,  B. Rana,  D. R. Rehn,  F. Rob,  M. Scheurer,  M. Schneider,  
 N. Sergueev,  S. M. Sharada,  S. Sharma,  D. W. Small,  T. Stauch,  
 C. J. Stein,  T. Stein,  Yu-Chuan Su,  S. P. Veccham,  Zhen Tao,  
 A. J. W. Thom,  A. Tkatchenko,  T. Tsuchimochi,  N. M. Tubman,  L. Vogt,  
 M. L. Vidal,  O. Vydrov,  M. A. Watson,  J. Wenzel,  M. de Wergifosse,  
 T. A. Wesolowski,  A. White,  J. Witte,  A. Yamada,  Jun Yang,  K. Yao,  
 S. Yeganeh,  S. R. Yost,  Zhi-Qiang You,  A. Zech,  Igor Ying Zhang,  
 Xing Zhang,  Yan Zhao,  Ying Zhu,  B. R. Brooks,  G. K. L. Chan,  
 C. J. Cramer,  M. S. Gordon,  W. J. Hehre,  A. Klamt,  M. W. Schmidt,  
 C. D. Sherrill,  D. G. Truhlar,  A. Aspuru-Guzik,  R. Baer,  A. T. Bell,  
 N. A. Besley,  Jeng-Da Chai,  A. E. DePrince, III,  R. A. DiStasio Jr.,  
 A. Dreuw,  B. D. Dunietz,  T. R. Furlani,  Chao-Ping Hsu,  Yousung Jung,  
 Jing Kong,  D. S. Lambrecht,  WanZhen Liang,  C. Ochsenfeld,  
 V. A. Rassolov,  L. V. Slipchenko,  J. E. Subotnik,  T. Van Voorhis,  
 J. M. Herbert,  A. I. Krylov,  P. M. W. Gill,  M. Head-Gordon

 Contributors to earlier versions of Q-Chem not listed above: 
 R. D. Adamson,  B. Austin,  J. Baker,  G. J. O. Beran,  K. Brandhorst,  
 S. T. Brown,  E. F. C. Byrd,  A. K. Chakraborty,  C.-L. Cheng,  
 Siu Hung Chien,  D. M. Chipman,  D. L. Crittenden,  H. Dachsel,  
 R. J. Doerksen,  A. D. Dutoi,  L. Fusti-Molnar,  W. A. Goddard III,  
 A. Golubeva-Zadorozhnaya,  S. R. Gwaltney,  G. Hawkins,  A. Heyden,  
 S. Hirata,  G. Kedziora,  F. J. Keil,  C. Kelley,  Jihan Kim,  R. A. King,  
 R. Z. Khaliullin,  P. P. Korambath,  W. Kurlancheek,  A. M. Lee,  M. S. Lee,  
 S. V. Levchenko,  Ching Yeh Lin,  D. Liotard,  R. C. Lochan,  I. Lotan,  
 P. E. Maslen,  N. Nair,  D. P. O'Neill,  D. Neuhauser,  E. Neuscamman,  
 C. M. Oana,  R. Olson,  B. Peters,  R. Peverati,  P. A. Pieniazek,  
 Y. M. Rhee,  J. Ritchie,  M. A. Rohrdanz,  E. Rosta,  N. J. Russ,  
 H. F. Schaefer III,  N. E. Schultz,  N. Shenvi,  A. C. Simmonett,  A. Sodt,  
 D. Stuck,  K. S. Thanthiriwatte,  V. Vanovschi,  Tao Wang,  A. Warshel,  
 C. F. Williams,  Q. Wu,  X. Xu,  W. Zhang

 Please cite Q-Chem as follows:
 Y. Shao et al., Mol. Phys. 113, 184-215 (2015)
 DOI: 10.1080/00268976.2014.952696

 Q-Chem 5.3.0 for Intel X86 EM64T Linux

 Parts of Q-Chem use Armadillo 9.800.1 (Horizon Scraper).
 http://arma.sourceforge.net/

 Q-Chem begins on Mon Jul 13 15:14:44 2020  

Host: centos77-c5
0

     Scratch files written to /tmp/29025.centos77-h1/qchem68692//
Processing $rem in /opt/qchem-5.3.0-intel2020u1//config/preferences:
Processing $rem in /home/shihchengli/.qchemrc:

Checking the input file for inconsistencies... 	...done.

--------------------------------------------------------------
User input:
--------------------------------------------------------------
$rem
   JOBTYPE  sp
   EXCHANGE   omegaB97X-D
   BASIS   6-311+G(2df,2pd)
   UNRESTRICTED   True
   max_scf_cycles   250
   geom_opt_max_cycles   1500
   basis2 6-31G*
   scf_algorithm rca_diis
   SYM_IGNORE  TRUE
   print_input   true
   geom_opt_dmax   80
   pop_mulliken false
   XC_GRID 000075000302
$end

$molecule
0 3
N       0.7343951555     1.2557263064     2.4288893342
O       0.3716674223     2.1440936446     1.7245486116
O       1.7507714768     1.0637751816     3.0038269740
N       0.0875044929     -0.9197260663     3.5642511027
O       -0.6853169468     -1.7530622055     3.8352554610
O       -0.3140304707     0.3041822492     2.5435284066
$end
--------------------------------------------------------------
 ----------------------------------------------------------------
             Standard Nuclear Orientation (Angstroms)
    I     Atom           X                Y                Z
 ----------------------------------------------------------------
    1      N       0.7343951555     1.2557263064     2.4288893342
    2      O       0.3716674223     2.1440936446     1.7245486116
    3      O       1.7507714768     1.0637751816     3.0038269740
    4      N       0.0875044929    -0.9197260663     3.5642511027
    5      O      -0.6853169468    -1.7530622055     3.8352554610
    6      O      -0.3140304707     0.3041822492     2.5435284066
 ----------------------------------------------------------------
 Nuclear Repulsion Energy =         228.75871962 hartrees
 There are       24 alpha and       22 beta electrons
 Requested basis set is 6-311+G(2df,2pd)
 There are 48 shells and 204 basis functions

 Total QAlloc Memory Limit   2000 MB
 Mega-Array Size       188 MB
 MEM_STATIC part       192 MB

                       Distance Matrix (Angstroms)
             N (  1)   O (  2)   O (  3)   N (  4)   O (  5)
   O (  2)  1.190321
   O (  3)  1.183393  2.169232
   N (  4)  2.537737  3.585003  2.648549
   O (  5)  3.611960  4.556328  3.815806  1.168394
   O (  6)  1.420484  2.127483  2.247724  1.643489  2.457370
 
 A cutoff of  1.0D-09 yielded   1010 shell pairs
 There are     18759 function pairs (     24565 Cartesian)
 Smallest overlap matrix eigenvalue = 6.80E-04

 Scale SEOQF with 1.000000e-01/1.000000e-01/1.000000e-01

 Standard Electronic Orientation quadrupole field applied
 Nucleus-field energy     =    -0.0000000349 hartrees
 Requested basis set is 6-31G(d)
 There are 24 shells and 84 basis functions
 A cutoff of  1.0D-09 yielded    265 shell pairs
 There are      3478 function pairs (      3998 Cartesian)
 Smallest overlap matrix eigenvalue = 4.45E-03
 Guess from superposition of atomic densities
 Warning:  Energy on first SCF cycle will be non-variational
 SAD guess density has 46.000000 electrons
 Long-range K will be added via erf
 Coulomb attenuation parameter = 0.2 bohr**(-1)
 An unrestricted hybrid HF-DFT SCF calculation will be
 performed using Relaxed Constraint Minimization + Pulay DIIS
 Exchange:     0.2220 Hartree-Fock + 1.0000 wB97X-D + LR-HF
 Correlation:  1.0000 wB97X-D
 Using Euler-Maclaurin-Lebedev (75,302) quadrature formula
 Dispersion:   Grimme D
 SCF converges when DIIS error is below 1.0E-04
 using 6 threads for integral computing
 -------------------------------------------------------
 OpenMP Integral computing Module                
 Release: version 1.0, May 2013, Q-Chem Inc. Pittsburgh 
 -------------------------------------------------------
 using 6 threads for integral computing
 -------------------------------------------------------
 OpenMP Integral computing Module                
 Release: version 1.0, May 2013, Q-Chem Inc. Pittsburgh 
 -------------------------------------------------------
 ---------------------------------------
  Cycle       Energy         DIIS Error
 ---------------------------------------
    1    -411.0327679041      8.84E-02
    2    -409.6553560868      1.95E-02
    3    -409.7581539471      4.60E-03
    4    -409.9078059758      4.86E-03
    5    -409.9145434855      6.32E-04 Done RCA. Switching to DIIS
    6    -409.9236779694      5.48E-04
    7    -409.9241451019      1.33E-04
    8    -409.9242373857      9.93E-05 Convergence criterion met
 ---------------------------------------
 <S^2> = 2.0158
 SCF time:  CPU 14.02 s  wall 2.35 s
 SCF   energy in the small basis set = -409.92423739
 Total energy in the small basis set = -409.92423739
 ----------------------------------------------------
  Cycle       Energy    
 ----------------------------------------------------
    1     -41.7576139028     -4.18E+01
 Long-range K will be added via erf
 Coulomb attenuation parameter = 0.2 bohr**(-1)
 An unrestricted hybrid HF-DFT SCF calculation will be
 performed using Relaxed Constraint Minimization + Pulay DIIS
 Exchange:     0.2220 Hartree-Fock + 1.0000 wB97X-D + LR-HF
 Correlation:  1.0000 wB97X-D
 Using Euler-Maclaurin-Lebedev (75,302) quadrature formula
 Dispersion:   Grimme D
 SCF converges when DIIS error is below 1.0E-05
 Basis2 calculation detected. Using small basis as guess for larger.
 SCFMinFind is unable to tell whether the solution found is close.
 Resetting ReadMinima to 0 and attempting to follow guess.
 SCFMinFind following SCF Guess.
 using 6 threads for integral computing
 -------------------------------------------------------
 OpenMP Integral computing Module                
 Release: version 1.0, May 2013, Q-Chem Inc. Pittsburgh 
 -------------------------------------------------------
 using 6 threads for integral computing
 -------------------------------------------------------
 OpenMP Integral computing Module                
 Release: version 1.0, May 2013, Q-Chem Inc. Pittsburgh 
 -------------------------------------------------------
 ---------------------------------------
  Cycle       Energy         DIIS Error
 ---------------------------------------
    1    -410.0135847320      8.02E-03
    2    -410.0247905301      4.06E-03
    3    -410.0452433805      1.10E-03
    4    -410.0743629373      1.19E-03
    5    -410.0764006198      1.89E-04 Done RCA. Switching to DIIS
    6    -410.0793156575      2.01E-04
    7    -410.0795310955      5.36E-05
    8    -410.0796011222      1.89E-05
    9    -410.0796224799      9.22E-06 Convergence criterion met
 ---------------------------------------
 <S^2> = 2.0182
 SCF time:  CPU 58.70 s  wall 9.82 s
 SCF   energy in the final basis set = -410.07962248
 Total energy in the final basis set = -410.07962248
 
 --------------------------------------------------------------
 
                    Orbital Energies (a.u.)
 --------------------------------------------------------------
 
 Alpha MOs
 -- Occupied --
-19.4135 -19.4007 -19.3478 -19.3470 -14.7757 -14.6200  -1.4441  -1.3695
 -1.2589  -1.2096  -0.8731  -0.7794  -0.7195  -0.7186  -0.6841  -0.6533
 -0.6482  -0.6227  -0.5069  -0.4957  -0.4641  -0.4602  -0.4392  -0.3334
 -- Virtual --
 -0.0219   0.0051   0.0704   0.1136   0.1201   0.1339   0.1428   0.1669
  0.1787   0.1984   0.2319   0.2433   0.2474   0.2655   0.2888   0.2917
  0.3134   0.3239   0.3305   0.3400   0.3511   0.3521   0.3754   0.3843
  0.4036   0.4315   0.4458   0.4905   0.5050   0.5246   0.7455   0.7674
  0.7938   0.8044   0.9016   0.9166   0.9196   0.9590   0.9855   0.9930
  1.0369   1.0510   1.0545   1.0783   1.0862   1.0891   1.1107   1.1224
  1.1368   1.1518   1.1637   1.1774   1.2128   1.2234   1.2656   1.3502
  1.4580   1.4698   1.5151   1.5394   1.5503   1.5691   1.5933   1.6134
  1.6253   1.6836   1.7700   1.8069   1.8251   1.8704   1.9254   1.9524
  1.9740   2.1227   2.1437   2.1877   2.3588   2.3798   2.4413   2.5309
  2.5522   2.5612   2.7188   2.8114   3.4953   3.5540   3.5652   3.6003
  3.6213   3.6543   3.6648   3.7338   3.7485   3.7700   3.7816   3.8796
  3.9609   3.9707   4.0173   4.0803   4.1413   4.4254   4.4578   4.4889
  4.4966   4.5676   4.6434   4.6517   4.6953   4.7267   4.7450   4.7482
  4.7852   4.9181   4.9901   5.0010   5.0209   5.0243   5.0418   5.0490
  5.0603   5.0712   5.1015   5.1090   5.1183   5.1273   5.1540   5.1783
  5.2008   5.3144   5.3255   5.3613   5.4020   5.4100   5.4752   5.4862
  5.5552   5.5563   5.6426   5.6689   5.8253   5.8646   5.9912   6.1373
  6.3264   6.5351   6.6509   6.6669   6.7093   6.7170   6.7562   6.7641
  6.7866   6.8334   6.8922   6.9068   6.9204   6.9966   7.0939   7.1068
  7.1588   7.1692   7.1850   7.2696   7.2801   7.3463   7.4617   7.5697
  7.6701   7.7073   7.8214   7.8404   7.9243   8.2779  35.9167  36.1208
 49.9868  50.1660  50.2386  50.2636
 
 Beta MOs
 -- Occupied --
-19.3993 -19.3832 -19.3475 -19.3459 -14.7761 -14.6013  -1.4401  -1.3315
 -1.2570  -1.1752  -0.8314  -0.7444  -0.7158  -0.7057  -0.6730  -0.6037
 -0.5735  -0.5716  -0.4796  -0.4712  -0.4615  -0.4464
 -- Virtual --
 -0.1476  -0.0282   0.0110   0.0536   0.0817   0.1172   0.1293   0.1380
  0.1477   0.1688   0.1810   0.2019   0.2338   0.2459   0.2507   0.2666
  0.2928   0.2974   0.3185   0.3247   0.3325   0.3417   0.3526   0.3545
  0.3808   0.3881   0.4134   0.4368   0.4477   0.4927   0.5233   0.5294
  0.7549   0.7807   0.8135   0.8218   0.9074   0.9217   0.9286   0.9726
  0.9889   1.0022   1.0437   1.0590   1.0639   1.0902   1.1050   1.1063
  1.1244   1.1297   1.1486   1.1607   1.1792   1.1854   1.2204   1.2367
  1.2780   1.3625   1.4710   1.4817   1.5359   1.5465   1.5563   1.5734
  1.6028   1.6287   1.6542   1.6889   1.7810   1.8098   1.8494   1.8800
  1.9293   1.9609   1.9949   2.1429   2.1571   2.1950   2.3624   2.3914
  2.4616   2.5371   2.5586   2.5700   2.7292   2.8153   3.5222   3.5853
  3.5896   3.6149   3.6352   3.6581   3.6778   3.7513   3.7744   3.8049
  3.8251   3.8990   3.9876   3.9982   4.0184   4.0893   4.1530   4.4270
  4.4602   4.4954   4.4981   4.5994   4.6491   4.7004   4.7164   4.7534
  4.7761   4.7999   4.8053   4.9699   5.0090   5.0173   5.0433   5.0507
  5.0552   5.0633   5.0753   5.0890   5.1215   5.1230   5.1309   5.1498
  5.1733   5.1975   5.2179   5.3408   5.3491   5.3878   5.4045   5.4208
  5.4933   5.5017   5.5607   5.5910   5.6573   5.6868   5.8328   5.8719
  6.0067   6.1736   6.3398   6.5369   6.6806   6.6952   6.7488   6.7662
  6.7821   6.7936   6.8076   6.8400   6.8947   6.9074   6.9626   7.0093
  7.1169   7.1238   7.1687   7.1967   7.2150   7.2745   7.3046   7.3529
  7.4843   7.5795   7.7004   7.7342   7.8329   7.8572   7.9335   8.2794
 35.9392  36.1205  50.0017  50.1819  50.2409  50.2635
 --------------------------------------------------------------
 
 -----------------------------------------------------------------
                    Cartesian Multipole Moments
 -----------------------------------------------------------------
    Charge (ESU x 10^10)
                -0.0000
    Dipole Moment (Debye)
         X      -0.2498      Y      -0.7130      Z       0.3324
       Tot       0.8253
    Quadrupole Moments (Debye-Ang)
        XX     -33.5993     XY      -1.1588     YY     -33.9831
        XZ      -1.3064     YZ      -0.4642     ZZ     -29.9508
    Octopole Moments (Debye-Ang^2)
       XXX     -35.6332    XXY     -13.8360    XYY     -10.9926
       YYY     -38.4120    XXZ     -97.0039    XYZ      -4.3070
       YYZ     -92.5246    XZZ     -14.5535    YZZ      -9.8427
       ZZZ    -263.2283
    Hexadecapole Moments (Debye-Ang^3)
      XXXX    -168.2682   XXXY     -77.1853   XXYY     -94.1124
      XYYY     -78.3901   YYYY    -396.4530   XXXZ     -87.8908
      XXYZ     -12.3785   XYYZ     -23.5760   YYYZ     -16.0510
      XXZZ    -326.1150   XYZZ     -40.2696   YYZZ    -338.8342
      XZZZ     -83.3796   YZZZ      -5.4883   ZZZZ   -1630.4256
 -----------------------------------------------------------------
Archival summary:
1\1\centos77-c5\SP\ProcedureUnspecified\BasisUnspecified\42(3)\shihchen\MonJul1315:14:592020MonJul1315:14:592020\0\\#,ProcedureUnspecified,BasisUnspecified,\\0,3\N\O,1,1.18339\O,1,1.19032,2,132.087\O,1,1.42048,2,119.081,3,-179.712,0\N,4,1.64349,1,111.633,2,2.58945,0\O,5,1.16839,4,120.904,1,175.695,0\\\@

 Total job time:  14.50s(wall), 77.04s(cpu) 
 Mon Jul 13 15:14:59 2020

        *************************************************************
        *                                                           *
        *  Thank you very much for using Q-Chem.  Have a nice day.  *
        *                                                           *
        *************************************************************


