                  Welcome to Q-Chem
     A Quantum Leap Into The Future Of Chemistry


 Q-Chem 5.3 (devel), Q-Chem, Inc., Pleasanton, CA (2020)

 Yihan Shao,  Zhengting Gan,  E. Epifanovsky,  A. T. B. Gilbert,  M. Wormit,  
 J. Kussmann,  A. W. Lange,  A. Behn,  Jia Deng,  Xintian Feng,  D. Ghosh,  
 M. Goldey,  P. R. Horn,  L. D. Jacobson,  I. Kaliman,  T. Kus,  A. Landau,  
 Jie Liu,  E. I. Proynov,  R. M. Richard,  R. P. Steele,  E. J. Sundstrom,  
 H. L. Woodcock III,  P. M. Zimmerman,  D. Zuev,  B. Alam,  B. Albrecht,  
 E. Alguire,  S. A. Baeppler,  D. Barton,  Z. Benda,  Y. A. Bernard,  
 E. J. Berquist,  K. B. Bravaya,  H. Burton,  K. Carter-Fenk,  D. Casanova,  
 Chun-Min Chang,  Yunqing Chen,  A. Chien,  K. D. Closser,  M. P. Coons,  
 S. Coriani,  S. Dasgupta,  A. L. Dempwolff,  M. Diedenhofen,  Hainam Do,  
 R. G. Edgar,  Po-Tung Fang,  S. Faraji,  S. Fatehi,  Qingguo Feng,  
 J. Fosso-Tande,  J. Gayvert,  Qinghui Ge,  A. Ghysels,  G. Gidofalvi,  
 J. Gomes,  J. Gonthier,  A. Gunina,  D. Hait,  M. W. D. Hanson-Heine,  
 P. H. P. Harbach,  A. W. Hauser,  M. F. Herbst,  J. E. Herr,  
 E. G. Hohenstein,  Z. C. Holden,  Kerwin Hui,  B. C. Huynh,  T.-C. Jagau,  
 Hyunjun Ji,  B. Kaduk,  K. Khistyaev,  Jaehoon Kim,  P. Klunzinger,  K. Koh,  
 D. Kosenkov,  L. Koulias,  T. Kowalczyk,  C. M. Krauter,  A. Kunitsa,  
 Ka Un Lao,  A. Laurent,  K. V. Lawler,  Joonho Lee,  D. Lefrancois,  
 S. Lehtola,  D. S. Levine,  Yi-Pei Li,  You-Sheng Lin,  Fenglai Liu,  
 Kuan-Yu Liu,  E. Livshits,  M. Loipersberger,  A. Luenser,  P. Manohar,  
 E. Mansoor,  S. F. Manzer,  Shan-Ping Mao,  Yuezhi Mao,  N. Mardirossian,  
 A. V. Marenich,  T. Markovich,  L. A. Martinez-Martinez,  S. A. Maurer,  
 N. J. Mayhall,  S. C. McKenzie,  J.-M. Mewes,  P. Morgante,  A. F. Morrison,  
 J. W. Mullinax,  K. Nanda,  T. S. Nguyen-Beck,  R. Olivares-Amaya,  
 K. J. Oosterbaan,  J. A. Parkhill,  S. K. Paul,  F. Pavosevic,  Zheng Pei,  
 T. M. Perrine,  F. Plasser,  P. Pokhilko,  S. Prager,  A. Prociuk,  
 E. Ramos,  B. Rana,  D. R. Rehn,  F. Rob,  M. Scheurer,  M. Schneider,  
 N. Sergueev,  S. M. Sharada,  S. Sharma,  D. W. Small,  T. Stauch,  
 C. J. Stein,  T. Stein,  Yu-Chuan Su,  S. P. Veccham,  Zhen Tao,  
 A. J. W. Thom,  A. Tkatchenko,  T. Tsuchimochi,  N. M. Tubman,  L. Vogt,  
 M. L. Vidal,  O. Vydrov,  M. A. Watson,  J. Wenzel,  M. de Wergifosse,  
 T. A. Wesolowski,  A. White,  J. Witte,  A. Yamada,  Jun Yang,  K. Yao,  
 S. Yeganeh,  S. R. Yost,  Zhi-Qiang You,  A. Zech,  Igor Ying Zhang,  
 Xing Zhang,  Yan Zhao,  Ying Zhu,  B. R. Brooks,  G. K. L. Chan,  
 C. J. Cramer,  M. S. Gordon,  W. J. Hehre,  A. Klamt,  M. W. Schmidt,  
 C. D. Sherrill,  D. G. Truhlar,  A. Aspuru-Guzik,  R. Baer,  A. T. Bell,  
 N. A. Besley,  Jeng-Da Chai,  A. E. DePrince, III,  R. A. DiStasio Jr.,  
 A. Dreuw,  B. D. Dunietz,  T. R. Furlani,  Chao-Ping Hsu,  Yousung Jung,  
 Jing Kong,  D. S. Lambrecht,  WanZhen Liang,  C. Ochsenfeld,  
 V. A. Rassolov,  L. V. Slipchenko,  J. E. Subotnik,  T. Van Voorhis,  
 J. M. Herbert,  A. I. Krylov,  P. M. W. Gill,  M. Head-Gordon

 Contributors to earlier versions of Q-Chem not listed above: 
 R. D. Adamson,  B. Austin,  J. Baker,  G. J. O. Beran,  K. Brandhorst,  
 S. T. Brown,  E. F. C. Byrd,  A. K. Chakraborty,  C.-L. Cheng,  
 Siu Hung Chien,  D. M. Chipman,  D. L. Crittenden,  H. Dachsel,  
 R. J. Doerksen,  A. D. Dutoi,  L. Fusti-Molnar,  W. A. Goddard III,  
 A. Golubeva-Zadorozhnaya,  S. R. Gwaltney,  G. Hawkins,  A. Heyden,  
 S. Hirata,  G. Kedziora,  F. J. Keil,  C. Kelley,  Jihan Kim,  R. A. King,  
 R. Z. Khaliullin,  P. P. Korambath,  W. Kurlancheek,  A. M. Lee,  M. S. Lee,  
 S. V. Levchenko,  Ching Yeh Lin,  D. Liotard,  R. C. Lochan,  I. Lotan,  
 P. E. Maslen,  N. Nair,  D. P. O'Neill,  D. Neuhauser,  E. Neuscamman,  
 C. M. Oana,  R. Olson,  B. Peters,  R. Peverati,  P. A. Pieniazek,  
 Y. M. Rhee,  J. Ritchie,  M. A. Rohrdanz,  E. Rosta,  N. J. Russ,  
 H. F. Schaefer III,  N. E. Schultz,  N. Shenvi,  A. C. Simmonett,  A. Sodt,  
 D. Stuck,  K. S. Thanthiriwatte,  V. Vanovschi,  Tao Wang,  A. Warshel,  
 C. F. Williams,  Q. Wu,  X. Xu,  W. Zhang

 Please cite Q-Chem as follows:
 Y. Shao et al., Mol. Phys. 113, 184-215 (2015)
 DOI: 10.1080/00268976.2014.952696

 Q-Chem 5.3.0 for Intel X86 EM64T Linux

 Parts of Q-Chem use Armadillo 9.800.1 (Horizon Scraper).
 http://arma.sourceforge.net/

 Q-Chem begins on Mon Jul 13 15:16:14 2020  

Host: centos77-c5
0

     Scratch files written to /tmp/29025.centos77-h1/qchem95651//
Processing $rem in /opt/qchem-5.3.0-intel2020u1//config/preferences:
Processing $rem in /home/shihchengli/.qchemrc:

Checking the input file for inconsistencies... 	...done.

--------------------------------------------------------------
User input:
--------------------------------------------------------------
$rem
   JOBTYPE  sp
   EXCHANGE   omegaB97X-D
   BASIS   6-311+G(2df,2pd)
   UNRESTRICTED   True
   max_scf_cycles   250
   geom_opt_max_cycles   1500
   basis2 6-31G*
   scf_algorithm rca_diis
   SYM_IGNORE  TRUE
   print_input   true
   geom_opt_dmax   80
   pop_mulliken false
   XC_GRID 000075000302
$end

$molecule
0 3
N       0.7245133932     1.2148311037     2.4228653370
O       0.4474450967     2.0777194859     1.6511655323
O       1.7384667756     0.9277796350     2.9613069244
N       -0.1517169159     -0.7240114384     3.8060561927
O       -0.3739278300     -1.8467591234     3.5710978855
O       -0.4397893894     0.4454294470     2.6878080181
$end
--------------------------------------------------------------
 ----------------------------------------------------------------
             Standard Nuclear Orientation (Angstroms)
    I     Atom           X                Y                Z
 ----------------------------------------------------------------
    1      N       0.7245133932     1.2148311037     2.4228653370
    2      O       0.4474450967     2.0777194859     1.6511655323
    3      O       1.7384667756     0.9277796350     2.9613069244
    4      N      -0.1517169159    -0.7240114384     3.8060561927
    5      O      -0.3739278300    -1.8467591234     3.5710978855
    6      O      -0.4397893894     0.4454294470     2.6878080181
 ----------------------------------------------------------------
 Nuclear Repulsion Energy =         230.02195672 hartrees
 There are       24 alpha and       22 beta electrons
 Requested basis set is 6-311+G(2df,2pd)
 There are 48 shells and 204 basis functions

 Total QAlloc Memory Limit   2000 MB
 Mega-Array Size       188 MB
 MEM_STATIC part       192 MB

                       Distance Matrix (Angstroms)
             N (  1)   O (  2)   O (  3)   N (  4)   O (  5)
   O (  2)  1.190321
   O (  3)  1.183393  2.169232
   N (  4)  2.537737  3.585003  2.648549
   O (  5)  3.449398  4.445484  3.540074  1.168394
   O (  6)  1.420484  2.127483  2.247724  1.643489  2.457370
 
 A cutoff of  1.0D-09 yielded   1016 shell pairs
 There are     18918 function pairs (     24801 Cartesian)
 Smallest overlap matrix eigenvalue = 7.43E-04

 Scale SEOQF with 1.000000e-01/1.000000e-01/1.000000e-01

 Standard Electronic Orientation quadrupole field applied
 Nucleus-field energy     =    -0.0000000351 hartrees
 Requested basis set is 6-31G(d)
 There are 24 shells and 84 basis functions
 A cutoff of  1.0D-09 yielded    267 shell pairs
 There are      3518 function pairs (      4046 Cartesian)
 Smallest overlap matrix eigenvalue = 4.76E-03
 Guess from superposition of atomic densities
 Warning:  Energy on first SCF cycle will be non-variational
 SAD guess density has 46.000000 electrons
 Long-range K will be added via erf
 Coulomb attenuation parameter = 0.2 bohr**(-1)
 An unrestricted hybrid HF-DFT SCF calculation will be
 performed using Relaxed Constraint Minimization + Pulay DIIS
 Exchange:     0.2220 Hartree-Fock + 1.0000 wB97X-D + LR-HF
 Correlation:  1.0000 wB97X-D
 Using Euler-Maclaurin-Lebedev (75,302) quadrature formula
 Dispersion:   Grimme D
 SCF converges when DIIS error is below 1.0E-04
 using 6 threads for integral computing
 -------------------------------------------------------
 OpenMP Integral computing Module                
 Release: version 1.0, May 2013, Q-Chem Inc. Pittsburgh 
 -------------------------------------------------------
 using 6 threads for integral computing
 -------------------------------------------------------
 OpenMP Integral computing Module                
 Release: version 1.0, May 2013, Q-Chem Inc. Pittsburgh 
 -------------------------------------------------------
 ---------------------------------------
  Cycle       Energy         DIIS Error
 ---------------------------------------
    1    -411.0328849369      8.84E-02
    2    -409.6578045219      1.95E-02
    3    -409.7612738692      4.51E-03
    4    -409.9101247301      4.78E-03
    5    -409.9165739118      6.39E-04 Done RCA. Switching to DIIS
    6    -409.9251881842      5.57E-04
    7    -409.9256098097      9.30E-05 Convergence criterion met
 ---------------------------------------
 <S^2> = 2.0152
 SCF time:  CPU 13.14 s  wall 2.20 s
 SCF   energy in the small basis set = -409.92560981
 Total energy in the small basis set = -409.92560981
 ----------------------------------------------------
  Cycle       Energy    
 ----------------------------------------------------
    1     -41.7573858159     -4.18E+01
 Long-range K will be added via erf
 Coulomb attenuation parameter = 0.2 bohr**(-1)
 An unrestricted hybrid HF-DFT SCF calculation will be
 performed using Relaxed Constraint Minimization + Pulay DIIS
 Exchange:     0.2220 Hartree-Fock + 1.0000 wB97X-D + LR-HF
 Correlation:  1.0000 wB97X-D
 Using Euler-Maclaurin-Lebedev (75,302) quadrature formula
 Dispersion:   Grimme D
 SCF converges when DIIS error is below 1.0E-05
 Basis2 calculation detected. Using small basis as guess for larger.
 SCFMinFind is unable to tell whether the solution found is close.
 Resetting ReadMinima to 0 and attempting to follow guess.
 SCFMinFind following SCF Guess.
 using 6 threads for integral computing
 -------------------------------------------------------
 OpenMP Integral computing Module                
 Release: version 1.0, May 2013, Q-Chem Inc. Pittsburgh 
 -------------------------------------------------------
 using 6 threads for integral computing
 -------------------------------------------------------
 OpenMP Integral computing Module                
 Release: version 1.0, May 2013, Q-Chem Inc. Pittsburgh 
 -------------------------------------------------------
 ---------------------------------------
  Cycle       Energy         DIIS Error
 ---------------------------------------
    1    -410.0133346167      8.04E-03
    2    -410.0200518696      4.27E-03
    3    -410.0423390028      1.22E-03
    4    -410.0742564449      1.19E-03
    5    -410.0767902511      1.48E-04 Done RCA. Switching to DIIS
    6    -410.0805966632      1.50E-04
    7    -410.0807622319      5.39E-05
    8    -410.0808420745      2.05E-05
    9    -410.0808663572      1.04E-05
   10    -410.0808731742      5.42E-06 Convergence criterion met
 ---------------------------------------
 <S^2> = 2.0184
 SCF time:  CPU 65.25 s  wall 10.91 s
 SCF   energy in the final basis set = -410.08087317
 Total energy in the final basis set = -410.08087317
 
 --------------------------------------------------------------
 
                    Orbital Energies (a.u.)
 --------------------------------------------------------------
 
 Alpha MOs
 -- Occupied --
-19.4125 -19.4002 -19.3486 -19.3471 -14.7737 -14.6204  -1.4439  -1.3694
 -1.2589  -1.2084  -0.8737  -0.7781  -0.7198  -0.7179  -0.6849  -0.6549
 -0.6400  -0.6282  -0.5036  -0.4953  -0.4640  -0.4604  -0.4384  -0.3381
 -- Virtual --
 -0.0222   0.0074   0.0741   0.1152   0.1230   0.1349   0.1403   0.1685
  0.1781   0.1910   0.2297   0.2410   0.2569   0.2640   0.2709   0.2961
  0.3033   0.3264   0.3421   0.3469   0.3482   0.3618   0.3687   0.3905
  0.4119   0.4330   0.4363   0.4648   0.4801   0.5256   0.7362   0.7563
  0.8054   0.8152   0.8717   0.8763   0.9294   0.9538   0.9877   1.0038
  1.0170   1.0449   1.0688   1.0736   1.0815   1.0868   1.1129   1.1266
  1.1311   1.1514   1.1597   1.1834   1.2112   1.2457   1.2657   1.3259
  1.4612   1.4767   1.5282   1.5349   1.5587   1.5751   1.5946   1.6113
  1.6420   1.6657   1.7216   1.7879   1.8255   1.8915   1.9076   1.9524
  1.9976   2.1329   2.1794   2.2055   2.3448   2.3647   2.4403   2.4803
  2.5396   2.5546   2.6984   2.8085   3.5125   3.5315   3.5797   3.6090
  3.6194   3.6615   3.6813   3.7231   3.7340   3.7684   3.7940   3.8863
  3.9554   3.9934   4.0172   4.0777   4.1029   4.4211   4.4514   4.4831
  4.4988   4.6091   4.6339   4.6492   4.6834   4.7210   4.7387   4.7897
  4.8013   4.8970   4.9959   5.0035   5.0203   5.0279   5.0429   5.0482
  5.0601   5.0774   5.0827   5.1141   5.1204   5.1330   5.1718   5.1821
  5.2134   5.2791   5.3223   5.3838   5.4035   5.4133   5.4582   5.5016
  5.5535   5.5640   5.6307   5.6626   5.8195   5.8651   5.9880   6.1213
  6.3305   6.5358   6.6517   6.6762   6.6832   6.7228   6.7427   6.7668
  6.7935   6.8287   6.8802   6.9075   6.9499   6.9941   7.0961   7.1028
  7.1530   7.1688   7.1949   7.2714   7.2985   7.3504   7.4439   7.5621
  7.6648   7.6879   7.8210   7.8493   7.9095   8.2751  35.9075  36.1219
 49.9885  50.1631  50.2366  50.2622
 
 Beta MOs
 -- Occupied --
-19.3988 -19.3824 -19.3475 -19.3466 -14.7737 -14.6021  -1.4395  -1.3312
 -1.2567  -1.1745  -0.8305  -0.7442  -0.7156  -0.7048  -0.6728  -0.6033
 -0.5823  -0.5614  -0.4798  -0.4704  -0.4619  -0.4462
 -- Virtual --
 -0.1491  -0.0235  -0.0015   0.0583   0.0845   0.1195   0.1349   0.1393
  0.1449   0.1707   0.1804   0.1947   0.2308   0.2437   0.2622   0.2655
  0.2733   0.2979   0.3099   0.3271   0.3431   0.3490   0.3504   0.3652
  0.3705   0.3975   0.4204   0.4380   0.4417   0.4681   0.4959   0.5309
  0.7463   0.7693   0.8205   0.8297   0.8813   0.8839   0.9351   0.9622
  1.0021   1.0112   1.0226   1.0615   1.0775   1.0858   1.0938   1.0990
  1.1232   1.1341   1.1416   1.1566   1.1763   1.1950   1.2221   1.2562
  1.2796   1.3423   1.4708   1.4970   1.5324   1.5419   1.5705   1.5796
  1.6145   1.6261   1.6598   1.6879   1.7308   1.7921   1.8356   1.9040
  1.9154   1.9611   2.0154   2.1568   2.1842   2.2198   2.3524   2.3751
  2.4592   2.4969   2.5420   2.5581   2.7072   2.8123   3.5383   3.5686
  3.5953   3.6254   3.6338   3.6628   3.6973   3.7341   3.7519   3.8037
  3.8507   3.9071   3.9880   4.0106   4.0179   4.0910   4.1171   4.4233
  4.4552   4.4888   4.5002   4.6436   4.6520   4.6656   4.7219   4.7320
  4.7692   4.8268   4.8521   4.9429   5.0158   5.0228   5.0442   5.0484
  5.0554   5.0632   5.0762   5.0884   5.1047   5.1269   5.1330   5.1520
  5.1930   5.2132   5.2337   5.3064   5.3402   5.4016   5.4129   5.4248
  5.4703   5.5255   5.5590   5.5927   5.6591   5.6728   5.8245   5.8723
  6.0034   6.1591   6.3429   6.5376   6.6890   6.6988   6.7155   6.7688
  6.7870   6.7970   6.8080   6.8363   6.8825   6.9088   6.9856   7.0068
  7.1131   7.1219   7.1687   7.1936   7.2238   7.2775   7.3217   7.3604
  7.4695   7.5705   7.6931   7.7164   7.8311   7.8686   7.9163   8.2771
 35.9296  36.1220  50.0028  50.1797  50.2386  50.2621
 --------------------------------------------------------------
 
 -----------------------------------------------------------------
                    Cartesian Multipole Moments
 -----------------------------------------------------------------
    Charge (ESU x 10^10)
                -0.0000
    Dipole Moment (Debye)
         X      -0.3639      Y      -0.6003      Z       0.4662
       Tot       0.8427
    Quadrupole Moments (Debye-Ang)
        XX     -33.8453     XY      -0.6633     YY     -33.8889
        XZ      -1.5265     YZ      -0.0663     ZZ     -28.8196
    Octopole Moments (Debye-Ang^2)
       XXX     -35.5093    XXY     -13.9166    XYY     -10.9948
       YYY     -36.1015    XXZ     -97.2603    XYZ      -1.6988
       YYZ     -92.0549    XZZ     -15.4776    YZZ      -9.6640
       ZZZ    -255.8669
    Hexadecapole Moments (Debye-Ang^3)
      XXXX    -162.7306   XXXY     -68.2183   XXYY     -89.5986
      XYYY     -66.8485   YYYY    -376.3128   XXXZ     -86.2345
      XXYZ     -13.2294   XYYZ     -23.3104   YYYZ     -12.8058
      XXZZ    -325.2402   XYZZ     -26.2111   YYZZ    -334.1998
      XZZZ     -87.8663   YZZZ     -15.4989   ZZZZ   -1589.9476
 -----------------------------------------------------------------
Archival summary:
1\1\centos77-c5\SP\ProcedureUnspecified\BasisUnspecified\42(3)\shihchen\MonJul1315:16:292020MonJul1315:16:292020\0\\#,ProcedureUnspecified,BasisUnspecified,\\0,3\N\O,1,1.18339\O,1,1.19032,2,132.087\O,1,1.42048,2,119.081,3,-179.712,0\N,4,1.64349,1,111.633,2,2.58945,0\O,5,1.16839,4,120.904,1,-124.305,0\\\@

 Total job time:  15.48s(wall), 82.67s(cpu) 
 Mon Jul 13 15:16:29 2020

        *************************************************************
        *                                                           *
        *  Thank you very much for using Q-Chem.  Have a nice day.  *
        *                                                           *
        *************************************************************


