                  Welcome to Q-Chem
     A Quantum Leap Into The Future Of Chemistry


 Q-Chem 5.3 (devel), Q-Chem, Inc., Pleasanton, CA (2020)

 Yihan Shao,  Zhengting Gan,  E. Epifanovsky,  A. T. B. Gilbert,  M. Wormit,  
 J. Kussmann,  A. W. Lange,  A. Behn,  Jia Deng,  Xintian Feng,  D. Ghosh,  
 M. Goldey,  P. R. Horn,  L. D. Jacobson,  I. Kaliman,  T. Kus,  A. Landau,  
 Jie Liu,  E. I. Proynov,  R. M. Richard,  R. P. Steele,  E. J. Sundstrom,  
 H. L. Woodcock III,  P. M. Zimmerman,  D. Zuev,  B. Alam,  B. Albrecht,  
 E. Alguire,  S. A. Baeppler,  D. Barton,  Z. Benda,  Y. A. Bernard,  
 E. J. Berquist,  K. B. Bravaya,  H. Burton,  K. Carter-Fenk,  D. Casanova,  
 Chun-Min Chang,  Yunqing Chen,  A. Chien,  K. D. Closser,  M. P. Coons,  
 S. Coriani,  S. Dasgupta,  A. L. Dempwolff,  M. Diedenhofen,  Hainam Do,  
 R. G. Edgar,  Po-Tung Fang,  S. Faraji,  S. Fatehi,  Qingguo Feng,  
 J. Fosso-Tande,  J. Gayvert,  Qinghui Ge,  A. Ghysels,  G. Gidofalvi,  
 J. Gomes,  J. Gonthier,  A. Gunina,  D. Hait,  M. W. D. Hanson-Heine,  
 P. H. P. Harbach,  A. W. Hauser,  M. F. Herbst,  J. E. Herr,  
 E. G. Hohenstein,  Z. C. Holden,  Kerwin Hui,  B. C. Huynh,  T.-C. Jagau,  
 Hyunjun Ji,  B. Kaduk,  K. Khistyaev,  Jaehoon Kim,  P. Klunzinger,  K. Koh,  
 D. Kosenkov,  L. Koulias,  T. Kowalczyk,  C. M. Krauter,  A. Kunitsa,  
 Ka Un Lao,  A. Laurent,  K. V. Lawler,  Joonho Lee,  D. Lefrancois,  
 S. Lehtola,  D. S. Levine,  Yi-Pei Li,  You-Sheng Lin,  Fenglai Liu,  
 Kuan-Yu Liu,  E. Livshits,  M. Loipersberger,  A. Luenser,  P. Manohar,  
 E. Mansoor,  S. F. Manzer,  Shan-Ping Mao,  Yuezhi Mao,  N. Mardirossian,  
 A. V. Marenich,  T. Markovich,  L. A. Martinez-Martinez,  S. A. Maurer,  
 N. J. Mayhall,  S. C. McKenzie,  J.-M. Mewes,  P. Morgante,  A. F. Morrison,  
 J. W. Mullinax,  K. Nanda,  T. S. Nguyen-Beck,  R. Olivares-Amaya,  
 K. J. Oosterbaan,  J. A. Parkhill,  S. K. Paul,  F. Pavosevic,  Zheng Pei,  
 T. M. Perrine,  F. Plasser,  P. Pokhilko,  S. Prager,  A. Prociuk,  
 E. Ramos,  B. Rana,  D. R. Rehn,  F. Rob,  M. Scheurer,  M. Schneider,  
 N. Sergueev,  S. M. Sharada,  S. Sharma,  D. W. Small,  T. Stauch,  
 C. J. Stein,  T. Stein,  Yu-Chuan Su,  S. P. Veccham,  Zhen Tao,  
 A. J. W. Thom,  A. Tkatchenko,  T. Tsuchimochi,  N. M. Tubman,  L. Vogt,  
 M. L. Vidal,  O. Vydrov,  M. A. Watson,  J. Wenzel,  M. de Wergifosse,  
 T. A. Wesolowski,  A. White,  J. Witte,  A. Yamada,  Jun Yang,  K. Yao,  
 S. Yeganeh,  S. R. Yost,  Zhi-Qiang You,  A. Zech,  Igor Ying Zhang,  
 Xing Zhang,  Yan Zhao,  Ying Zhu,  B. R. Brooks,  G. K. L. Chan,  
 C. J. Cramer,  M. S. Gordon,  W. J. Hehre,  A. Klamt,  M. W. Schmidt,  
 C. D. Sherrill,  D. G. Truhlar,  A. Aspuru-Guzik,  R. Baer,  A. T. Bell,  
 N. A. Besley,  Jeng-Da Chai,  A. E. DePrince, III,  R. A. DiStasio Jr.,  
 A. Dreuw,  B. D. Dunietz,  T. R. Furlani,  Chao-Ping Hsu,  Yousung Jung,  
 Jing Kong,  D. S. Lambrecht,  WanZhen Liang,  C. Ochsenfeld,  
 V. A. Rassolov,  L. V. Slipchenko,  J. E. Subotnik,  T. Van Voorhis,  
 J. M. Herbert,  A. I. Krylov,  P. M. W. Gill,  M. Head-Gordon

 Contributors to earlier versions of Q-Chem not listed above: 
 R. D. Adamson,  B. Austin,  J. Baker,  G. J. O. Beran,  K. Brandhorst,  
 S. T. Brown,  E. F. C. Byrd,  A. K. Chakraborty,  C.-L. Cheng,  
 Siu Hung Chien,  D. M. Chipman,  D. L. Crittenden,  H. Dachsel,  
 R. J. Doerksen,  A. D. Dutoi,  L. Fusti-Molnar,  W. A. Goddard III,  
 A. Golubeva-Zadorozhnaya,  S. R. Gwaltney,  G. Hawkins,  A. Heyden,  
 S. Hirata,  G. Kedziora,  F. J. Keil,  C. Kelley,  Jihan Kim,  R. A. King,  
 R. Z. Khaliullin,  P. P. Korambath,  W. Kurlancheek,  A. M. Lee,  M. S. Lee,  
 S. V. Levchenko,  Ching Yeh Lin,  D. Liotard,  R. C. Lochan,  I. Lotan,  
 P. E. Maslen,  N. Nair,  D. P. O'Neill,  D. Neuhauser,  E. Neuscamman,  
 C. M. Oana,  R. Olson,  B. Peters,  R. Peverati,  P. A. Pieniazek,  
 Y. M. Rhee,  J. Ritchie,  M. A. Rohrdanz,  E. Rosta,  N. J. Russ,  
 H. F. Schaefer III,  N. E. Schultz,  N. Shenvi,  A. C. Simmonett,  A. Sodt,  
 D. Stuck,  K. S. Thanthiriwatte,  V. Vanovschi,  Tao Wang,  A. Warshel,  
 C. F. Williams,  Q. Wu,  X. Xu,  W. Zhang

 Please cite Q-Chem as follows:
 Y. Shao et al., Mol. Phys. 113, 184-215 (2015)
 DOI: 10.1080/00268976.2014.952696

 Q-Chem 5.3.0 for Intel X86 EM64T Linux

 Parts of Q-Chem use Armadillo 9.800.1 (Horizon Scraper).
 http://arma.sourceforge.net/

 Q-Chem begins on Mon Jul 13 15:14:00 2020  

Host: centos77-c5
0

     Scratch files written to /tmp/29025.centos77-h1/qchem55113//
Processing $rem in /opt/qchem-5.3.0-intel2020u1//config/preferences:
Processing $rem in /home/shihchengli/.qchemrc:

Checking the input file for inconsistencies... 	...done.

--------------------------------------------------------------
User input:
--------------------------------------------------------------
$rem
   JOBTYPE  sp
   EXCHANGE   omegaB97X-D
   BASIS   6-311+G(2df,2pd)
   UNRESTRICTED   True
   max_scf_cycles   250
   geom_opt_max_cycles   1500
   basis2 6-31G*
   scf_algorithm rca_diis
   SYM_IGNORE  TRUE
   print_input   true
   geom_opt_dmax   80
   pop_mulliken false
   XC_GRID 000075000302
$end

$molecule
0 3
N       0.7241294048     1.2503990829     2.4426447871
O       0.3556440030     2.1703148885     1.7832229125
O       1.7196987558     1.0608385049     3.0536503559
N       0.1225698289     -1.0245912255     3.3927248227
O       -0.6923310504     -1.6123789110     3.9890365319
O       -0.2847198120     0.2504067702     2.4390204799
$end
--------------------------------------------------------------
 ----------------------------------------------------------------
             Standard Nuclear Orientation (Angstroms)
    I     Atom           X                Y                Z
 ----------------------------------------------------------------
    1      N       0.7241294048     1.2503990829     2.4426447871
    2      O       0.3556440030     2.1703148885     1.7832229125
    3      O       1.7196987558     1.0608385049     3.0536503559
    4      N       0.1225698289    -1.0245912255     3.3927248227
    5      O      -0.6923310504    -1.6123789110     3.9890365319
    6      O      -0.2847198120     0.2504067702     2.4390204799
 ----------------------------------------------------------------
 Nuclear Repulsion Energy =         229.22222838 hartrees
 There are       24 alpha and       22 beta electrons
 Requested basis set is 6-311+G(2df,2pd)
 There are 48 shells and 204 basis functions

 Total QAlloc Memory Limit   2000 MB
 Mega-Array Size       188 MB
 MEM_STATIC part       192 MB

                       Distance Matrix (Angstroms)
             N (  1)   O (  2)   O (  3)   N (  4)   O (  5)
   O (  2)  1.190321
   O (  3)  1.183393  2.169232
   N (  4)  2.537737  3.585003  2.648549
   O (  5)  3.548688  4.502515  3.720071  1.168394
   O (  6)  1.420484  2.127483  2.247724  1.643489  2.457370
 
 A cutoff of  1.0D-09 yielded   1011 shell pairs
 There are     18784 function pairs (     24601 Cartesian)
 Smallest overlap matrix eigenvalue = 7.38E-04

 Scale SEOQF with 1.000000e-01/1.000000e-01/1.000000e-01

 Standard Electronic Orientation quadrupole field applied
 Nucleus-field energy     =    -0.0000000352 hartrees
 Requested basis set is 6-31G(d)
 There are 24 shells and 84 basis functions
 A cutoff of  1.0D-09 yielded    265 shell pairs
 There are      3478 function pairs (      3998 Cartesian)
 Smallest overlap matrix eigenvalue = 4.63E-03
 Guess from superposition of atomic densities
 Warning:  Energy on first SCF cycle will be non-variational
 SAD guess density has 46.000000 electrons
 Long-range K will be added via erf
 Coulomb attenuation parameter = 0.2 bohr**(-1)
 An unrestricted hybrid HF-DFT SCF calculation will be
 performed using Relaxed Constraint Minimization + Pulay DIIS
 Exchange:     0.2220 Hartree-Fock + 1.0000 wB97X-D + LR-HF
 Correlation:  1.0000 wB97X-D
 Using Euler-Maclaurin-Lebedev (75,302) quadrature formula
 Dispersion:   Grimme D
 SCF converges when DIIS error is below 1.0E-04
 using 6 threads for integral computing
 -------------------------------------------------------
 OpenMP Integral computing Module                
 Release: version 1.0, May 2013, Q-Chem Inc. Pittsburgh 
 -------------------------------------------------------
 using 6 threads for integral computing
 -------------------------------------------------------
 OpenMP Integral computing Module                
 Release: version 1.0, May 2013, Q-Chem Inc. Pittsburgh 
 -------------------------------------------------------
 ---------------------------------------
  Cycle       Energy         DIIS Error
 ---------------------------------------
    1    -411.0327953386      8.84E-02
    2    -409.6563788552      1.95E-02
    3    -409.7595178284      4.56E-03
    4    -409.9088637276      4.83E-03
    5    -409.9154865996      6.37E-04 Done RCA. Switching to DIIS
    6    -409.9243954294      5.55E-04
    7    -409.9248404090      1.13E-04
    8    -409.9249229231      9.37E-05 Convergence criterion met
 ---------------------------------------
 <S^2> = 2.0158
 SCF time:  CPU 14.23 s  wall 2.39 s
 SCF   energy in the small basis set = -409.92492292
 Total energy in the small basis set = -409.92492292
 ----------------------------------------------------
  Cycle       Energy    
 ----------------------------------------------------
    1     -41.7575211305     -4.18E+01
 Long-range K will be added via erf
 Coulomb attenuation parameter = 0.2 bohr**(-1)
 An unrestricted hybrid HF-DFT SCF calculation will be
 performed using Relaxed Constraint Minimization + Pulay DIIS
 Exchange:     0.2220 Hartree-Fock + 1.0000 wB97X-D + LR-HF
 Correlation:  1.0000 wB97X-D
 Using Euler-Maclaurin-Lebedev (75,302) quadrature formula
 Dispersion:   Grimme D
 SCF converges when DIIS error is below 1.0E-05
 Basis2 calculation detected. Using small basis as guess for larger.
 SCFMinFind is unable to tell whether the solution found is close.
 Resetting ReadMinima to 0 and attempting to follow guess.
 SCFMinFind following SCF Guess.
 using 6 threads for integral computing
 -------------------------------------------------------
 OpenMP Integral computing Module                
 Release: version 1.0, May 2013, Q-Chem Inc. Pittsburgh 
 -------------------------------------------------------
 using 6 threads for integral computing
 -------------------------------------------------------
 OpenMP Integral computing Module                
 Release: version 1.0, May 2013, Q-Chem Inc. Pittsburgh 
 -------------------------------------------------------
 ---------------------------------------
  Cycle       Energy         DIIS Error
 ---------------------------------------
    1    -410.0140881907      8.02E-03
    2    -410.0240204888      4.12E-03
    3    -410.0449097465      1.13E-03
    4    -410.0746272531      1.22E-03
    5    -410.0767873851      1.95E-04 Done RCA. Switching to DIIS
    6    -410.0798735585      2.09E-04
    7    -410.0800911225      5.26E-05
    8    -410.0801626895      1.96E-05
    9    -410.0801843700      9.57E-06 Convergence criterion met
 ---------------------------------------
 <S^2> = 2.0182
 SCF time:  CPU 58.75 s  wall 9.82 s
 SCF   energy in the final basis set = -410.08018437
 Total energy in the final basis set = -410.08018437
 
 --------------------------------------------------------------
 
                    Orbital Energies (a.u.)
 --------------------------------------------------------------
 
 Alpha MOs
 -- Occupied --
-19.4133 -19.4002 -19.3481 -19.3469 -14.7748 -14.6200  -1.4440  -1.3692
 -1.2589  -1.2092  -0.8733  -0.7788  -0.7195  -0.7184  -0.6844  -0.6539
 -0.6449  -0.6247  -0.5042  -0.4966  -0.4639  -0.4603  -0.4389  -0.3353
 -- Virtual --
 -0.0224   0.0064   0.0720   0.1149   0.1214   0.1343   0.1418   0.1680
  0.1784   0.1947   0.2324   0.2404   0.2530   0.2654   0.2811   0.2944
  0.3040   0.3262   0.3380   0.3442   0.3508   0.3582   0.3742   0.3820
  0.4134   0.4257   0.4412   0.4703   0.4831   0.5241   0.7378   0.7635
  0.8014   0.8085   0.8846   0.8883   0.9305   0.9589   0.9855   1.0029
  1.0193   1.0387   1.0625   1.0728   1.0856   1.0890   1.1023   1.1215
  1.1298   1.1506   1.1590   1.1854   1.2131   1.2437   1.2670   1.3356
  1.4621   1.4747   1.5182   1.5392   1.5525   1.5743   1.5958   1.6094
  1.6340   1.6654   1.7353   1.7933   1.8291   1.8867   1.9199   1.9489
  1.9852   2.1409   2.1618   2.1832   2.3552   2.3735   2.4369   2.4869
  2.5388   2.5569   2.7117   2.8116   3.5073   3.5377   3.5695   3.6072
  3.6166   3.6574   3.6727   3.7315   3.7424   3.7666   3.7905   3.8811
  3.9606   3.9788   4.0171   4.0787   4.1246   4.4233   4.4543   4.4913
  4.4978   4.5860   4.6394   4.6459   4.6963   4.7190   4.7476   4.7718
  4.7915   4.9038   4.9931   5.0048   5.0209   5.0277   5.0423   5.0484
  5.0598   5.0771   5.0868   5.1116   5.1269   5.1318   5.1618   5.1779
  5.2066   5.2903   5.3288   5.3731   5.4045   5.4115   5.4680   5.5001
  5.5528   5.5591   5.6401   5.6594   5.8190   5.8637   5.9879   6.1299
  6.3287   6.5357   6.6517   6.6731   6.6937   6.7204   6.7462   6.7655
  6.7906   6.8310   6.8843   6.9073   6.9395   6.9939   7.0979   7.1027
  7.1559   7.1684   7.1928   7.2686   7.2864   7.3471   7.4461   7.5652
  7.6666   7.6916   7.8220   7.8426   7.9143   8.2768  35.9100  36.1211
 49.9868  50.1630  50.2376  50.2629
 
 Beta MOs
 -- Occupied --
-19.3993 -19.3825 -19.3474 -19.3462 -14.7750 -14.6015  -1.4398  -1.3312
 -1.2568  -1.1749  -0.8310  -0.7442  -0.7157  -0.7052  -0.6729  -0.6034
 -0.5796  -0.5649  -0.4793  -0.4710  -0.4617  -0.4464
 -- Virtual --
 -0.1478  -0.0266   0.0056   0.0557   0.0829   0.1184   0.1321   0.1383
  0.1464   0.1696   0.1806   0.1983   0.2343   0.2418   0.2579   0.2665
  0.2849   0.2990   0.3075   0.3268   0.3394   0.3462   0.3528   0.3606
  0.3761   0.3896   0.4212   0.4332   0.4441   0.4732   0.4995   0.5293
  0.7486   0.7764   0.8161   0.8264   0.8896   0.8980   0.9365   0.9693
  0.9975   1.0117   1.0249   1.0525   1.0673   1.0856   1.1000   1.1037
  1.1144   1.1294   1.1413   1.1545   1.1726   1.1986   1.2225   1.2562
  1.2803   1.3511   1.4712   1.4926   1.5365   1.5407   1.5623   1.5789
  1.6093   1.6265   1.6611   1.6749   1.7455   1.7979   1.8417   1.9017
  1.9264   1.9564   2.0037   2.1646   2.1737   2.1901   2.3599   2.3844
  2.4575   2.5040   2.5410   2.5596   2.7215   2.8156   3.5330   3.5749
  3.5876   3.6199   3.6332   3.6607   3.6858   3.7455   3.7621   3.8073
  3.8379   3.9019   3.9952   3.9970   4.0175   4.0896   4.1375   4.4252
  4.4573   4.4961   4.4994   4.6232   4.6507   4.6679   4.7228   4.7463
  4.7764   4.8147   4.8339   4.9511   5.0123   5.0248   5.0437   5.0495
  5.0556   5.0642   5.0755   5.0886   5.1109   5.1229   5.1360   5.1526
  5.1837   5.2089   5.2216   5.3181   5.3494   5.3961   5.4093   5.4225
  5.4823   5.5208   5.5586   5.5910   5.6624   5.6733   5.8248   5.8709
  6.0035   6.1667   6.3418   6.5375   6.6852   6.6973   6.7299   6.7671
  6.7844   6.7952   6.8073   6.8383   6.8871   6.9083   6.9774   7.0072
  7.1179   7.1198   7.1691   7.1954   7.2216   7.2753   7.3102   7.3544
  7.4696   7.5750   7.6955   7.7198   7.8326   7.8610   7.9223   8.2786
 35.9323  36.1210  50.0014  50.1792  50.2398  50.2628
 --------------------------------------------------------------
 
 -----------------------------------------------------------------
                    Cartesian Multipole Moments
 -----------------------------------------------------------------
    Charge (ESU x 10^10)
                -0.0000
    Dipole Moment (Debye)
         X      -0.2203      Y      -0.7633      Z       0.2406
       Tot       0.8301
    Quadrupole Moments (Debye-Ang)
        XX     -33.4174     XY      -1.1997     YY     -33.8595
        XZ      -1.3946     YZ      -0.6696     ZZ     -30.7146
    Octopole Moments (Debye-Ang^2)
       XXX     -35.2451    XXY     -13.6145    XYY     -11.0660
       YYY     -39.9039    XXZ     -96.7004    XYZ      -4.7560
       YYZ     -92.3939    XZZ     -15.1900    YZZ      -9.7905
       ZZZ    -267.9345
    Hexadecapole Moments (Debye-Ang^3)
      XXXX    -162.9817   XXXY     -74.0058   XXYY     -92.2578
      XYYY     -75.8796   YYYY    -390.2934   XXXZ     -88.2969
      XXYZ     -13.0884   XYYZ     -24.4991   YYYZ     -23.6249
      XXZZ    -325.1946   XYZZ     -41.1855   YYZZ    -338.2823
      XZZZ     -86.8930   YZZZ      -3.2794   ZZZZ   -1657.7675
 -----------------------------------------------------------------
Archival summary:
1\1\centos77-c5\SP\ProcedureUnspecified\BasisUnspecified\42(3)\shihchen\MonJul1315:14:142020MonJul1315:14:142020\0\\#,ProcedureUnspecified,BasisUnspecified,\\0,3\N\O,1,1.18339\O,1,1.19032,2,132.087\O,1,1.42048,2,119.081,3,-179.712,0\N,4,1.64349,1,111.633,2,2.58945,0\O,5,1.16839,4,120.904,1,145.695,0\\\@

 Total job time:  14.55s(wall), 77.25s(cpu) 
 Mon Jul 13 15:14:14 2020

        *************************************************************
        *                                                           *
        *  Thank you very much for using Q-Chem.  Have a nice day.  *
        *                                                           *
        *************************************************************


