                  Welcome to Q-Chem
     A Quantum Leap Into The Future Of Chemistry


 Q-Chem 5.3 (devel), Q-Chem, Inc., Pleasanton, CA (2020)

 Yihan Shao,  Zhengting Gan,  E. Epifanovsky,  A. T. B. Gilbert,  M. Wormit,  
 J. Kussmann,  A. W. Lange,  A. Behn,  Jia Deng,  Xintian Feng,  D. Ghosh,  
 M. Goldey,  P. R. Horn,  L. D. Jacobson,  I. Kaliman,  T. Kus,  A. Landau,  
 Jie Liu,  E. I. Proynov,  R. M. Richard,  R. P. Steele,  E. J. Sundstrom,  
 H. L. Woodcock III,  P. M. Zimmerman,  D. Zuev,  B. Alam,  B. Albrecht,  
 E. Alguire,  S. A. Baeppler,  D. Barton,  Z. Benda,  Y. A. Bernard,  
 E. J. Berquist,  K. B. Bravaya,  H. Burton,  K. Carter-Fenk,  D. Casanova,  
 Chun-Min Chang,  Yunqing Chen,  A. Chien,  K. D. Closser,  M. P. Coons,  
 S. Coriani,  S. Dasgupta,  A. L. Dempwolff,  M. Diedenhofen,  Hainam Do,  
 R. G. Edgar,  Po-Tung Fang,  S. Faraji,  S. Fatehi,  Qingguo Feng,  
 J. Fosso-Tande,  J. Gayvert,  Qinghui Ge,  A. Ghysels,  G. Gidofalvi,  
 J. Gomes,  J. Gonthier,  A. Gunina,  D. Hait,  M. W. D. Hanson-Heine,  
 P. H. P. Harbach,  A. W. Hauser,  M. F. Herbst,  J. E. Herr,  
 E. G. Hohenstein,  Z. C. Holden,  Kerwin Hui,  B. C. Huynh,  T.-C. Jagau,  
 Hyunjun Ji,  B. Kaduk,  K. Khistyaev,  Jaehoon Kim,  P. Klunzinger,  K. Koh,  
 D. Kosenkov,  L. Koulias,  T. Kowalczyk,  C. M. Krauter,  A. Kunitsa,  
 Ka Un Lao,  A. Laurent,  K. V. Lawler,  Joonho Lee,  D. Lefrancois,  
 S. Lehtola,  D. S. Levine,  Yi-Pei Li,  You-Sheng Lin,  Fenglai Liu,  
 Kuan-Yu Liu,  E. Livshits,  M. Loipersberger,  A. Luenser,  P. Manohar,  
 E. Mansoor,  S. F. Manzer,  Shan-Ping Mao,  Yuezhi Mao,  N. Mardirossian,  
 A. V. Marenich,  T. Markovich,  L. A. Martinez-Martinez,  S. A. Maurer,  
 N. J. Mayhall,  S. C. McKenzie,  J.-M. Mewes,  P. Morgante,  A. F. Morrison,  
 J. W. Mullinax,  K. Nanda,  T. S. Nguyen-Beck,  R. Olivares-Amaya,  
 K. J. Oosterbaan,  J. A. Parkhill,  S. K. Paul,  F. Pavosevic,  Zheng Pei,  
 T. M. Perrine,  F. Plasser,  P. Pokhilko,  S. Prager,  A. Prociuk,  
 E. Ramos,  B. Rana,  D. R. Rehn,  F. Rob,  M. Scheurer,  M. Schneider,  
 N. Sergueev,  S. M. Sharada,  S. Sharma,  D. W. Small,  T. Stauch,  
 C. J. Stein,  T. Stein,  Yu-Chuan Su,  S. P. Veccham,  Zhen Tao,  
 A. J. W. Thom,  A. Tkatchenko,  T. Tsuchimochi,  N. M. Tubman,  L. Vogt,  
 M. L. Vidal,  O. Vydrov,  M. A. Watson,  J. Wenzel,  M. de Wergifosse,  
 T. A. Wesolowski,  A. White,  J. Witte,  A. Yamada,  Jun Yang,  K. Yao,  
 S. Yeganeh,  S. R. Yost,  Zhi-Qiang You,  A. Zech,  Igor Ying Zhang,  
 Xing Zhang,  Yan Zhao,  Ying Zhu,  B. R. Brooks,  G. K. L. Chan,  
 C. J. Cramer,  M. S. Gordon,  W. J. Hehre,  A. Klamt,  M. W. Schmidt,  
 C. D. Sherrill,  D. G. Truhlar,  A. Aspuru-Guzik,  R. Baer,  A. T. Bell,  
 N. A. Besley,  Jeng-Da Chai,  A. E. DePrince, III,  R. A. DiStasio Jr.,  
 A. Dreuw,  B. D. Dunietz,  T. R. Furlani,  Chao-Ping Hsu,  Yousung Jung,  
 Jing Kong,  D. S. Lambrecht,  WanZhen Liang,  C. Ochsenfeld,  
 V. A. Rassolov,  L. V. Slipchenko,  J. E. Subotnik,  T. Van Voorhis,  
 J. M. Herbert,  A. I. Krylov,  P. M. W. Gill,  M. Head-Gordon

 Contributors to earlier versions of Q-Chem not listed above: 
 R. D. Adamson,  B. Austin,  J. Baker,  G. J. O. Beran,  K. Brandhorst,  
 S. T. Brown,  E. F. C. Byrd,  A. K. Chakraborty,  C.-L. Cheng,  
 Siu Hung Chien,  D. M. Chipman,  D. L. Crittenden,  H. Dachsel,  
 R. J. Doerksen,  A. D. Dutoi,  L. Fusti-Molnar,  W. A. Goddard III,  
 A. Golubeva-Zadorozhnaya,  S. R. Gwaltney,  G. Hawkins,  A. Heyden,  
 S. Hirata,  G. Kedziora,  F. J. Keil,  C. Kelley,  Jihan Kim,  R. A. King,  
 R. Z. Khaliullin,  P. P. Korambath,  W. Kurlancheek,  A. M. Lee,  M. S. Lee,  
 S. V. Levchenko,  Ching Yeh Lin,  D. Liotard,  R. C. Lochan,  I. Lotan,  
 P. E. Maslen,  N. Nair,  D. P. O'Neill,  D. Neuhauser,  E. Neuscamman,  
 C. M. Oana,  R. Olson,  B. Peters,  R. Peverati,  P. A. Pieniazek,  
 Y. M. Rhee,  J. Ritchie,  M. A. Rohrdanz,  E. Rosta,  N. J. Russ,  
 H. F. Schaefer III,  N. E. Schultz,  N. Shenvi,  A. C. Simmonett,  A. Sodt,  
 D. Stuck,  K. S. Thanthiriwatte,  V. Vanovschi,  Tao Wang,  A. Warshel,  
 C. F. Williams,  Q. Wu,  X. Xu,  W. Zhang

 Please cite Q-Chem as follows:
 Y. Shao et al., Mol. Phys. 113, 184-215 (2015)
 DOI: 10.1080/00268976.2014.952696

 Q-Chem 5.3.0 for Intel X86 EM64T Linux

 Parts of Q-Chem use Armadillo 9.800.1 (Horizon Scraper).
 http://arma.sourceforge.net/

 Q-Chem begins on Mon Jul 13 15:03:16 2020  

Host: centos77-c5
0

     Scratch files written to /tmp/29025.centos77-h1/qchem118409//
Processing $rem in /opt/qchem-5.3.0-intel2020u1//config/preferences:
Processing $rem in /home/shihchengli/.qchemrc:

Checking the input file for inconsistencies... 	...done.

--------------------------------------------------------------
User input:
--------------------------------------------------------------
$rem
   JOBTYPE  sp
   EXCHANGE   omegaB97X-D
   BASIS   6-311+G(2df,2pd)
   UNRESTRICTED   True
   max_scf_cycles   250
   geom_opt_max_cycles   1500
   basis2 6-31G*
   scf_algorithm rca_diis
   SYM_IGNORE  TRUE
   print_input   true
   geom_opt_dmax   80
   pop_mulliken false
   XC_GRID 000075000302
$end

$molecule
0 3
N       0.7559250163     1.1760957664     2.4574845334
O       0.0517819650     2.1168394760     2.2676224108
O       1.8626712032     1.0833353538     2.8660524397
N       0.0583889200     -1.1040905918     3.3259892639
O       -0.8327756982     -1.1727993793     4.0784852351
O       0.0489997238     -0.0043915151     2.1046660071
$end
--------------------------------------------------------------
 ----------------------------------------------------------------
             Standard Nuclear Orientation (Angstroms)
    I     Atom           X                Y                Z
 ----------------------------------------------------------------
    1      N       0.7559250163     1.1760957664     2.4574845334
    2      O       0.0517819650     2.1168394760     2.2676224108
    3      O       1.8626712032     1.0833353538     2.8660524397
    4      N       0.0583889200    -1.1040905918     3.3259892639
    5      O      -0.8327756982    -1.1727993793     4.0784852351
    6      O       0.0489997238    -0.0043915151     2.1046660071
 ----------------------------------------------------------------
 Nuclear Repulsion Energy =         230.80706709 hartrees
 There are       24 alpha and       22 beta electrons
 Requested basis set is 6-311+G(2df,2pd)
 There are 48 shells and 204 basis functions

 Total QAlloc Memory Limit   2000 MB
 Mega-Array Size       188 MB
 MEM_STATIC part       192 MB

                       Distance Matrix (Angstroms)
             N (  1)   O (  2)   O (  3)   N (  4)   O (  5)
   O (  2)  1.190321
   O (  3)  1.183393  2.169232
   N (  4)  2.537737  3.390365  2.872596
   O (  5)  3.266332  3.857900  3.718275  1.168394
   O (  6)  1.420484  2.127483  2.247724  1.643489  2.457370
 
 A cutoff of  1.0D-09 yielded   1019 shell pairs
 There are     19011 function pairs (     24923 Cartesian)
 Smallest overlap matrix eigenvalue = 5.75E-04

 Scale SEOQF with 1.000000e-01/1.000000e-01/1.000000e-01

 Standard Electronic Orientation quadrupole field applied
 Nucleus-field energy     =    -0.0000000357 hartrees
 Requested basis set is 6-31G(d)
 There are 24 shells and 84 basis functions
 A cutoff of  1.0D-09 yielded    265 shell pairs
 There are      3478 function pairs (      3998 Cartesian)
 Smallest overlap matrix eigenvalue = 4.94E-03
 Guess from superposition of atomic densities
 Warning:  Energy on first SCF cycle will be non-variational
 SAD guess density has 46.000000 electrons
 Long-range K will be added via erf
 Coulomb attenuation parameter = 0.2 bohr**(-1)
 An unrestricted hybrid HF-DFT SCF calculation will be
 performed using Relaxed Constraint Minimization + Pulay DIIS
 Exchange:     0.2220 Hartree-Fock + 1.0000 wB97X-D + LR-HF
 Correlation:  1.0000 wB97X-D
 Using Euler-Maclaurin-Lebedev (75,302) quadrature formula
 Dispersion:   Grimme D
 SCF converges when DIIS error is below 1.0E-04
 using 6 threads for integral computing
 -------------------------------------------------------
 OpenMP Integral computing Module                
 Release: version 1.0, May 2013, Q-Chem Inc. Pittsburgh 
 -------------------------------------------------------
 using 6 threads for integral computing
 -------------------------------------------------------
 OpenMP Integral computing Module                
 Release: version 1.0, May 2013, Q-Chem Inc. Pittsburgh 
 -------------------------------------------------------
 ---------------------------------------
  Cycle       Energy         DIIS Error
 ---------------------------------------
    1    -411.0298821391      8.84E-02
    2    -409.6491076131      1.96E-02
    3    -409.7547062313      4.39E-03
    4    -409.9051004212      4.69E-03
    5    -409.9113161047      6.46E-04 Done RCA. Switching to DIIS
    6    -409.9196829764      5.33E-04
    7    -409.9201105663      1.28E-04
    8    -409.9202010994      8.17E-05 Convergence criterion met
 ---------------------------------------
 <S^2> = 2.0170
 SCF time:  CPU 14.45 s  wall 2.42 s
 SCF   energy in the small basis set = -409.92020110
 Total energy in the small basis set = -409.92020110
 ----------------------------------------------------
  Cycle       Energy    
 ----------------------------------------------------
    1     -41.7570868317     -4.18E+01
 Long-range K will be added via erf
 Coulomb attenuation parameter = 0.2 bohr**(-1)
 An unrestricted hybrid HF-DFT SCF calculation will be
 performed using Relaxed Constraint Minimization + Pulay DIIS
 Exchange:     0.2220 Hartree-Fock + 1.0000 wB97X-D + LR-HF
 Correlation:  1.0000 wB97X-D
 Using Euler-Maclaurin-Lebedev (75,302) quadrature formula
 Dispersion:   Grimme D
 SCF converges when DIIS error is below 1.0E-05
 Basis2 calculation detected. Using small basis as guess for larger.
 SCFMinFind is unable to tell whether the solution found is close.
 Resetting ReadMinima to 0 and attempting to follow guess.
 SCFMinFind following SCF Guess.
 using 6 threads for integral computing
 -------------------------------------------------------
 OpenMP Integral computing Module                
 Release: version 1.0, May 2013, Q-Chem Inc. Pittsburgh 
 -------------------------------------------------------
 using 6 threads for integral computing
 -------------------------------------------------------
 OpenMP Integral computing Module                
 Release: version 1.0, May 2013, Q-Chem Inc. Pittsburgh 
 -------------------------------------------------------
 ---------------------------------------
  Cycle       Energy         DIIS Error
 ---------------------------------------
    1    -410.0034296625      8.07E-03
    2    -410.0098704629      4.42E-03
    3    -410.0338114923      1.25E-03
    4    -410.0683533059      1.31E-03
    5    -410.0710718521      1.83E-04 Done RCA. Switching to DIIS
    6    -410.0750921349      1.87E-04
    7    -410.0753795039      6.12E-05
    8    -410.0755804283      3.99E-05
    9    -410.0756879353      2.32E-05
   10    -410.0757553887      1.38E-05
   11    -410.0757865466      8.09E-06 Convergence criterion met
 ---------------------------------------
 <S^2> = 2.0195
 SCF time:  CPU 71.33 s  wall 11.92 s
 SCF   energy in the final basis set = -410.07578655
 Total energy in the final basis set = -410.07578655
 
 --------------------------------------------------------------
 
                    Orbital Energies (a.u.)
 --------------------------------------------------------------
 
 Alpha MOs
 -- Occupied --
-19.4102 -19.3964 -19.3532 -19.3508 -14.7738 -14.6209  -1.4462  -1.3673
 -1.2614  -1.2088  -0.8744  -0.7782  -0.7261  -0.7168  -0.6821  -0.6513
 -0.6339  -0.6307  -0.5207  -0.4875  -0.4676  -0.4583  -0.4391  -0.3396
 -- Virtual --
 -0.0388   0.0173   0.0783   0.1181   0.1241   0.1315   0.1399   0.1745
  0.1794   0.1821   0.2296   0.2347   0.2496   0.2679   0.2774   0.2904
  0.2945   0.3254   0.3363   0.3520   0.3559   0.3596   0.3761   0.3950
  0.4078   0.4304   0.4431   0.4527   0.4924   0.5241   0.7043   0.7785
  0.8129   0.8228   0.8515   0.8657   0.9129   0.9391   0.9721   0.9998
  1.0203   1.0450   1.0538   1.0708   1.0970   1.0978   1.1131   1.1259
  1.1377   1.1531   1.1793   1.1925   1.2125   1.2562   1.2944   1.3288
  1.3996   1.4602   1.5190   1.5429   1.5480   1.5635   1.6019   1.6182
  1.6403   1.6849   1.7097   1.7623   1.8371   1.8866   1.9327   1.9545
  2.0153   2.1445   2.1727   2.2345   2.3147   2.3582   2.4313   2.5039
  2.5217   2.5479   2.6683   2.7877   3.4435   3.5385   3.5464   3.6226
  3.6468   3.6797   3.6923   3.7135   3.7601   3.7873   3.8208   3.9244
  3.9381   3.9922   4.0116   4.0597   4.0723   4.4129   4.4489   4.4729
  4.5108   4.5850   4.6374   4.6601   4.6901   4.7110   4.7200   4.7730
  4.8518   4.8840   5.0029   5.0147   5.0183   5.0295   5.0381   5.0435
  5.0632   5.0741   5.0915   5.1133   5.1261   5.1340   5.1550   5.1815
  5.2062   5.2528   5.2959   5.3491   5.4120   5.4289   5.4597   5.4874
  5.5544   5.5715   5.6364   5.6915   5.7982   5.9209   5.9834   6.1259
  6.2926   6.5380   6.6287   6.6560   6.7116   6.7309   6.7517   6.7652
  6.8027   6.8098   6.8482   6.9062   6.9459   7.0508   7.0913   7.1308
  7.1517   7.1658   7.1865   7.2560   7.2922   7.3530   7.4448   7.5542
  7.6311   7.6989   7.7978   7.8476   7.9168   8.2757  35.9112  36.1214
 49.9718  50.1670  50.2302  50.2549
 
 Beta MOs
 -- Occupied --
-19.3961 -19.3795 -19.3513 -19.3506 -14.7737 -14.6027  -1.4416  -1.3306
 -1.2588  -1.1734  -0.8319  -0.7486  -0.7162  -0.7030  -0.6746  -0.5975
 -0.5852  -0.5604  -0.4908  -0.4699  -0.4648  -0.4360
 -- Virtual --
 -0.1513  -0.0305  -0.0076   0.0568   0.0898   0.1238   0.1347   0.1381
  0.1434   0.1766   0.1845   0.1850   0.2312   0.2370   0.2513   0.2718
  0.2788   0.2920   0.3023   0.3285   0.3371   0.3536   0.3581   0.3614
  0.3799   0.4031   0.4119   0.4330   0.4526   0.4574   0.5046   0.5314
  0.7162   0.7904   0.8160   0.8397   0.8626   0.8811   0.9197   0.9441
  0.9804   1.0114   1.0313   1.0585   1.0712   1.0787   1.1053   1.1097
  1.1211   1.1370   1.1438   1.1681   1.1939   1.2011   1.2286   1.2700
  1.3058   1.3396   1.4097   1.4725   1.5329   1.5513   1.5555   1.5727
  1.6230   1.6261   1.6547   1.7108   1.7186   1.7671   1.8445   1.8982
  1.9453   1.9619   2.0319   2.1684   2.1809   2.2456   2.3259   2.3708
  2.4446   2.5103   2.5324   2.5545   2.6756   2.7907   3.4609   3.5747
  3.5799   3.6324   3.6654   3.6897   3.6977   3.7228   3.7952   3.8305
  3.8512   3.9433   3.9626   4.0072   4.0164   4.0763   4.0883   4.4153
  4.4554   4.4761   4.5141   4.6120   4.6407   4.6921   4.7251   4.7316
  4.7541   4.8153   4.8853   4.9340   5.0229   5.0348   5.0414   5.0480
  5.0512   5.0571   5.0777   5.0874   5.1069   5.1251   5.1419   5.1623
  5.1830   5.2083   5.2260   5.2780   5.3151   5.3628   5.4170   5.4422
  5.4757   5.5112   5.5687   5.5939   5.6526   5.7108   5.8029   5.9324
  5.9999   6.1650   6.3010   6.5403   6.6508   6.7010   6.7408   6.7700
  6.7890   6.8003   6.8134   6.8166   6.8551   6.9078   6.9709   7.0666
  7.1197   7.1573   7.1704   7.1934   7.2099   7.2641   7.3091   7.3593
  7.4683   7.5611   7.6635   7.7275   7.8046   7.8582   7.9318   8.2776
 35.9332  36.1215  49.9867  50.1828  50.2326  50.2547
 --------------------------------------------------------------
 
 -----------------------------------------------------------------
                    Cartesian Multipole Moments
 -----------------------------------------------------------------
    Charge (ESU x 10^10)
                 0.0000
    Dipole Moment (Debye)
         X      -0.0958      Y      -0.6695      Z      -0.0043
       Tot       0.6764
    Quadrupole Moments (Debye-Ang)
        XX     -33.9608     XY      -0.3922     YY     -33.5758
        XZ      -0.7893     YZ      -1.8718     ZZ     -31.3156
    Octopole Moments (Debye-Ang^2)
       XXX     -36.1037    XXY     -12.7710    XYY     -10.2618
       YYY     -41.3618    XXZ     -98.1374    XYZ      -3.2629
       YYZ     -94.1188    XZZ     -12.1757    YZZ     -14.8264
       ZZZ    -268.5316
    Hexadecapole Moments (Debye-Ang^3)
      XXXX    -183.4080   XXXY     -66.9558   XXYY     -86.7417
      XYYY     -64.1655   YYYY    -343.8210   XXXZ     -83.5673
      XXYZ     -18.3363   XYYZ     -23.0156   YYYZ     -58.8113
      XXZZ    -330.0571   XYZZ     -34.9330   YYZZ    -335.7695
      XZZZ     -66.9065   YZZZ     -41.3201   ZZZZ   -1646.1801
 -----------------------------------------------------------------
Archival summary:
1\1\centos77-c5\SP\ProcedureUnspecified\BasisUnspecified\42(3)\shihchen\MonJul1315:03:332020MonJul1315:03:332020\0\\#,ProcedureUnspecified,BasisUnspecified,\\0,3\N\O,1,1.18339\O,1,1.19032,2,132.087\O,1,1.42048,2,119.081,3,-179.712,0\N,4,1.64349,1,111.633,2,52.5894,0\O,5,1.16839,4,120.904,1,95.6949,0\\\@

 Total job time:  16.72s(wall), 90.00s(cpu) 
 Mon Jul 13 15:03:33 2020

        *************************************************************
        *                                                           *
        *  Thank you very much for using Q-Chem.  Have a nice day.  *
        *                                                           *
        *************************************************************


