                  Welcome to Q-Chem
     A Quantum Leap Into The Future Of Chemistry


 Q-Chem 5.3 (devel), Q-Chem, Inc., Pleasanton, CA (2020)

 Yihan Shao,  Zhengting Gan,  E. Epifanovsky,  A. T. B. Gilbert,  M. Wormit,  
 J. Kussmann,  A. W. Lange,  A. Behn,  Jia Deng,  Xintian Feng,  D. Ghosh,  
 M. Goldey,  P. R. Horn,  L. D. Jacobson,  I. Kaliman,  T. Kus,  A. Landau,  
 Jie Liu,  E. I. Proynov,  R. M. Richard,  R. P. Steele,  E. J. Sundstrom,  
 H. L. Woodcock III,  P. M. Zimmerman,  D. Zuev,  B. Alam,  B. Albrecht,  
 E. Alguire,  S. A. Baeppler,  D. Barton,  Z. Benda,  Y. A. Bernard,  
 E. J. Berquist,  K. B. Bravaya,  H. Burton,  K. Carter-Fenk,  D. Casanova,  
 Chun-Min Chang,  Yunqing Chen,  A. Chien,  K. D. Closser,  M. P. Coons,  
 S. Coriani,  S. Dasgupta,  A. L. Dempwolff,  M. Diedenhofen,  Hainam Do,  
 R. G. Edgar,  Po-Tung Fang,  S. Faraji,  S. Fatehi,  Qingguo Feng,  
 J. Fosso-Tande,  J. Gayvert,  Qinghui Ge,  A. Ghysels,  G. Gidofalvi,  
 J. Gomes,  J. Gonthier,  A. Gunina,  D. Hait,  M. W. D. Hanson-Heine,  
 P. H. P. Harbach,  A. W. Hauser,  M. F. Herbst,  J. E. Herr,  
 E. G. Hohenstein,  Z. C. Holden,  Kerwin Hui,  B. C. Huynh,  T.-C. Jagau,  
 Hyunjun Ji,  B. Kaduk,  K. Khistyaev,  Jaehoon Kim,  P. Klunzinger,  K. Koh,  
 D. Kosenkov,  L. Koulias,  T. Kowalczyk,  C. M. Krauter,  A. Kunitsa,  
 Ka Un Lao,  A. Laurent,  K. V. Lawler,  Joonho Lee,  D. Lefrancois,  
 S. Lehtola,  D. S. Levine,  Yi-Pei Li,  You-Sheng Lin,  Fenglai Liu,  
 Kuan-Yu Liu,  E. Livshits,  M. Loipersberger,  A. Luenser,  P. Manohar,  
 E. Mansoor,  S. F. Manzer,  Shan-Ping Mao,  Yuezhi Mao,  N. Mardirossian,  
 A. V. Marenich,  T. Markovich,  L. A. Martinez-Martinez,  S. A. Maurer,  
 N. J. Mayhall,  S. C. McKenzie,  J.-M. Mewes,  P. Morgante,  A. F. Morrison,  
 J. W. Mullinax,  K. Nanda,  T. S. Nguyen-Beck,  R. Olivares-Amaya,  
 K. J. Oosterbaan,  J. A. Parkhill,  S. K. Paul,  F. Pavosevic,  Zheng Pei,  
 T. M. Perrine,  F. Plasser,  P. Pokhilko,  S. Prager,  A. Prociuk,  
 E. Ramos,  B. Rana,  D. R. Rehn,  F. Rob,  M. Scheurer,  M. Schneider,  
 N. Sergueev,  S. M. Sharada,  S. Sharma,  D. W. Small,  T. Stauch,  
 C. J. Stein,  T. Stein,  Yu-Chuan Su,  S. P. Veccham,  Zhen Tao,  
 A. J. W. Thom,  A. Tkatchenko,  T. Tsuchimochi,  N. M. Tubman,  L. Vogt,  
 M. L. Vidal,  O. Vydrov,  M. A. Watson,  J. Wenzel,  M. de Wergifosse,  
 T. A. Wesolowski,  A. White,  J. Witte,  A. Yamada,  Jun Yang,  K. Yao,  
 S. Yeganeh,  S. R. Yost,  Zhi-Qiang You,  A. Zech,  Igor Ying Zhang,  
 Xing Zhang,  Yan Zhao,  Ying Zhu,  B. R. Brooks,  G. K. L. Chan,  
 C. J. Cramer,  M. S. Gordon,  W. J. Hehre,  A. Klamt,  M. W. Schmidt,  
 C. D. Sherrill,  D. G. Truhlar,  A. Aspuru-Guzik,  R. Baer,  A. T. Bell,  
 N. A. Besley,  Jeng-Da Chai,  A. E. DePrince, III,  R. A. DiStasio Jr.,  
 A. Dreuw,  B. D. Dunietz,  T. R. Furlani,  Chao-Ping Hsu,  Yousung Jung,  
 Jing Kong,  D. S. Lambrecht,  WanZhen Liang,  C. Ochsenfeld,  
 V. A. Rassolov,  L. V. Slipchenko,  J. E. Subotnik,  T. Van Voorhis,  
 J. M. Herbert,  A. I. Krylov,  P. M. W. Gill,  M. Head-Gordon

 Contributors to earlier versions of Q-Chem not listed above: 
 R. D. Adamson,  B. Austin,  J. Baker,  G. J. O. Beran,  K. Brandhorst,  
 S. T. Brown,  E. F. C. Byrd,  A. K. Chakraborty,  C.-L. Cheng,  
 Siu Hung Chien,  D. M. Chipman,  D. L. Crittenden,  H. Dachsel,  
 R. J. Doerksen,  A. D. Dutoi,  L. Fusti-Molnar,  W. A. Goddard III,  
 A. Golubeva-Zadorozhnaya,  S. R. Gwaltney,  G. Hawkins,  A. Heyden,  
 S. Hirata,  G. Kedziora,  F. J. Keil,  C. Kelley,  Jihan Kim,  R. A. King,  
 R. Z. Khaliullin,  P. P. Korambath,  W. Kurlancheek,  A. M. Lee,  M. S. Lee,  
 S. V. Levchenko,  Ching Yeh Lin,  D. Liotard,  R. C. Lochan,  I. Lotan,  
 P. E. Maslen,  N. Nair,  D. P. O'Neill,  D. Neuhauser,  E. Neuscamman,  
 C. M. Oana,  R. Olson,  B. Peters,  R. Peverati,  P. A. Pieniazek,  
 Y. M. Rhee,  J. Ritchie,  M. A. Rohrdanz,  E. Rosta,  N. J. Russ,  
 H. F. Schaefer III,  N. E. Schultz,  N. Shenvi,  A. C. Simmonett,  A. Sodt,  
 D. Stuck,  K. S. Thanthiriwatte,  V. Vanovschi,  Tao Wang,  A. Warshel,  
 C. F. Williams,  Q. Wu,  X. Xu,  W. Zhang

 Please cite Q-Chem as follows:
 Y. Shao et al., Mol. Phys. 113, 184-215 (2015)
 DOI: 10.1080/00268976.2014.952696

 Q-Chem 5.3.0 for Intel X86 EM64T Linux

 Parts of Q-Chem use Armadillo 9.800.1 (Horizon Scraper).
 http://arma.sourceforge.net/

 Q-Chem begins on Mon Jul 13 15:04:47 2020  

Host: centos77-c5
0

     Scratch files written to /tmp/29025.centos77-h1/qchem16470//
Processing $rem in /opt/qchem-5.3.0-intel2020u1//config/preferences:
Processing $rem in /home/shihchengli/.qchemrc:

Checking the input file for inconsistencies... 	...done.

--------------------------------------------------------------
User input:
--------------------------------------------------------------
$rem
   JOBTYPE  sp
   EXCHANGE   omegaB97X-D
   BASIS   6-311+G(2df,2pd)
   UNRESTRICTED   True
   max_scf_cycles   250
   geom_opt_max_cycles   1500
   basis2 6-31G*
   scf_algorithm rca_diis
   SYM_IGNORE  TRUE
   print_input   true
   geom_opt_dmax   80
   pop_mulliken false
   XC_GRID 000075000302
$end

$molecule
0 3
N       0.8387994422     1.1364286492     2.4554012988
O       -0.1000431673     1.8244505705     2.7045281340
O       2.0010921349     1.3578842017     2.4341295972
N       -0.0328065424     -1.0070001243     3.4975735500
O       -1.1413209663     -1.0456999073     3.8647840612
O       0.3792702289     -0.1710742800     2.1438832488
$end
--------------------------------------------------------------
 ----------------------------------------------------------------
             Standard Nuclear Orientation (Angstroms)
    I     Atom           X                Y                Z
 ----------------------------------------------------------------
    1      N       0.8387994422     1.1364286492     2.4554012988
    2      O      -0.1000431673     1.8244505705     2.7045281340
    3      O       2.0010921349     1.3578842017     2.4341295972
    4      N      -0.0328065424    -1.0070001243     3.4975735500
    5      O      -1.1413209663    -1.0456999073     3.8647840612
    6      O       0.3792702289    -0.1710742800     2.1438832488
 ----------------------------------------------------------------
 Nuclear Repulsion Energy =         231.35023861 hartrees
 There are       24 alpha and       22 beta electrons
 Requested basis set is 6-311+G(2df,2pd)
 There are 48 shells and 204 basis functions

 Total QAlloc Memory Limit   2000 MB
 Mega-Array Size       188 MB
 MEM_STATIC part       192 MB

                       Distance Matrix (Angstroms)
             N (  1)   O (  2)   O (  3)   N (  4)   O (  5)
   O (  2)  1.190321
   O (  3)  1.183393  2.169232
   N (  4)  2.537737  2.941183  3.295502
   O (  5)  3.266332  3.266224  4.206988  1.168394
   O (  6)  1.420484  2.127483  2.247724  1.643489  2.457370
 
 A cutoff of  1.0D-09 yielded   1024 shell pairs
 There are     19131 function pairs (     25091 Cartesian)
 Smallest overlap matrix eigenvalue = 3.43E-04

 Scale SEOQF with 1.000000e-01/1.000000e-01/1.000000e-01

 Standard Electronic Orientation quadrupole field applied
 Nucleus-field energy     =    -0.0000000353 hartrees
 Requested basis set is 6-31G(d)
 There are 24 shells and 84 basis functions
 A cutoff of  1.0D-09 yielded    265 shell pairs
 There are      3520 function pairs (      4046 Cartesian)
 Smallest overlap matrix eigenvalue = 5.11E-03
 Guess from superposition of atomic densities
 Warning:  Energy on first SCF cycle will be non-variational
 SAD guess density has 46.000000 electrons
 Long-range K will be added via erf
 Coulomb attenuation parameter = 0.2 bohr**(-1)
 An unrestricted hybrid HF-DFT SCF calculation will be
 performed using Relaxed Constraint Minimization + Pulay DIIS
 Exchange:     0.2220 Hartree-Fock + 1.0000 wB97X-D + LR-HF
 Correlation:  1.0000 wB97X-D
 Using Euler-Maclaurin-Lebedev (75,302) quadrature formula
 Dispersion:   Grimme D
 SCF converges when DIIS error is below 1.0E-04
 using 6 threads for integral computing
 -------------------------------------------------------
 OpenMP Integral computing Module                
 Release: version 1.0, May 2013, Q-Chem Inc. Pittsburgh 
 -------------------------------------------------------
 using 6 threads for integral computing
 -------------------------------------------------------
 OpenMP Integral computing Module                
 Release: version 1.0, May 2013, Q-Chem Inc. Pittsburgh 
 -------------------------------------------------------
 ---------------------------------------
  Cycle       Energy         DIIS Error
 ---------------------------------------
    1    -411.0295590617      8.84E-02
    2    -409.6335836858      1.98E-02
    3    -409.7428681305      4.22E-03
    4    -409.8967187570      4.47E-03
    5    -409.9024444129      6.12E-04 Done RCA. Switching to DIIS
    6    -409.9102715656      4.68E-04
    7    -409.9106638646      1.86E-04
    8    -409.9107769512      8.30E-05 Convergence criterion met
 ---------------------------------------
 <S^2> = 2.0169
 SCF time:  CPU 14.25 s  wall 2.39 s
 SCF   energy in the small basis set = -409.91077695
 Total energy in the small basis set = -409.91077695
 ----------------------------------------------------
  Cycle       Energy    
 ----------------------------------------------------
    1     -41.7615536369     -4.18E+01
 Long-range K will be added via erf
 Coulomb attenuation parameter = 0.2 bohr**(-1)
 An unrestricted hybrid HF-DFT SCF calculation will be
 performed using Relaxed Constraint Minimization + Pulay DIIS
 Exchange:     0.2220 Hartree-Fock + 1.0000 wB97X-D + LR-HF
 Correlation:  1.0000 wB97X-D
 Using Euler-Maclaurin-Lebedev (75,302) quadrature formula
 Dispersion:   Grimme D
 SCF converges when DIIS error is below 1.0E-05
 Basis2 calculation detected. Using small basis as guess for larger.
 SCFMinFind is unable to tell whether the solution found is close.
 Resetting ReadMinima to 0 and attempting to follow guess.
 SCFMinFind following SCF Guess.
 using 6 threads for integral computing
 -------------------------------------------------------
 OpenMP Integral computing Module                
 Release: version 1.0, May 2013, Q-Chem Inc. Pittsburgh 
 -------------------------------------------------------
 using 6 threads for integral computing
 -------------------------------------------------------
 OpenMP Integral computing Module                
 Release: version 1.0, May 2013, Q-Chem Inc. Pittsburgh 
 -------------------------------------------------------
 ---------------------------------------
  Cycle       Energy         DIIS Error
 ---------------------------------------
    1    -409.9566303949      8.31E-03
    2    -409.9504162286      5.49E-03
    3    -409.9890770996      1.60E-03
    4    -410.0475137700      1.70E-03
    5    -410.0529169237      2.09E-04 Done RCA. Switching to DIIS
    6    -410.0611768734      2.21E-04
    7    -410.0622603506      1.19E-04
    8    -410.0637331711      1.04E-04
    9    -410.0645866717      6.93E-05
   10    -410.0656616068      5.45E-05
   11    -410.0664323239      3.32E-05
   12    -410.0666531984      2.69E-05
   13    -410.0667422431      1.20E-05
   14    -410.0667667295      5.19E-06 Convergence criterion met
 ---------------------------------------
 <S^2> = 2.0190
 SCF time:  CPU 88.26 s  wall 14.75 s
 SCF   energy in the final basis set = -410.06676673
 Total energy in the final basis set = -410.06676673
 
 --------------------------------------------------------------
 
                    Orbital Energies (a.u.)
 --------------------------------------------------------------
 
 Alpha MOs
 -- Occupied --
-19.4027 -19.4006 -19.3518 -19.3441 -14.7687 -14.6271  -1.4425  -1.3719
 -1.2582  -1.2029  -0.8767  -0.7778  -0.7270  -0.7129  -0.6755  -0.6534
 -0.6372  -0.6305  -0.5183  -0.4829  -0.4657  -0.4591  -0.4312  -0.3437
 -- Virtual --
 -0.0412   0.0154   0.0834   0.1177   0.1257   0.1334   0.1421   0.1699
  0.1758   0.1856   0.2293   0.2403   0.2443   0.2746   0.2833   0.2844
  0.2914   0.3356   0.3464   0.3472   0.3574   0.3607   0.3701   0.3822
  0.3991   0.4289   0.4518   0.4729   0.5046   0.5236   0.7126   0.7709
  0.7931   0.8371   0.8468   0.8692   0.9121   0.9293   0.9862   1.0120
  1.0186   1.0448   1.0668   1.0815   1.0822   1.0991   1.1053   1.1209
  1.1230   1.1725   1.1860   1.1920   1.2232   1.2523   1.2981   1.3298
  1.4047   1.4311   1.5198   1.5346   1.5544   1.5821   1.6031   1.6206
  1.6463   1.6823   1.7201   1.7770   1.8104   1.9142   1.9386   1.9648
  2.0133   2.1234   2.1705   2.2606   2.2997   2.3897   2.4390   2.4991
  2.5252   2.5379   2.6745   2.7877   3.4288   3.5318   3.5342   3.6065
  3.6547   3.6707   3.7093   3.7196   3.7667   3.7761   3.8656   3.9220
  3.9634   3.9813   4.0159   4.0393   4.0613   4.4198   4.4639   4.4884
  4.5054   4.5822   4.6347   4.6689   4.6900   4.7147   4.7190   4.7649
  4.8585   4.8743   5.0047   5.0088   5.0196   5.0327   5.0402   5.0412
  5.0653   5.0798   5.0854   5.1020   5.1370   5.1575   5.1639   5.1900
  5.1970   5.2526   5.2859   5.3518   5.4151   5.4481   5.4708   5.4998
  5.5103   5.6094   5.6144   5.6919   5.7953   5.9360   5.9863   6.1187
  6.3174   6.5349   6.6484   6.6616   6.6924   6.7255   6.7391   6.7673
  6.8077   6.8194   6.8513   6.9048   6.9684   7.0582   7.0744   7.1191
  7.1533   7.1735   7.1917   7.2672   7.3033   7.3725   7.4711   7.5490
  7.5962   7.6936   7.7952   7.8515   7.9425   8.2847  35.9141  36.1283
 49.9760  50.1612  50.2398  50.2546
 
 Beta MOs
 -- Occupied --
-19.3873 -19.3851 -19.3518 -19.3425 -14.7690 -14.6087  -1.4384  -1.3340
 -1.2558  -1.1686  -0.8317  -0.7490  -0.7109  -0.7006  -0.6729  -0.5988
 -0.5832  -0.5635  -0.4999  -0.4668  -0.4595  -0.4220
 -- Virtual --
 -0.1625  -0.0298  -0.0083   0.0549   0.0949   0.1223   0.1356   0.1410
  0.1485   0.1734   0.1798   0.1900   0.2320   0.2444   0.2461   0.2782
  0.2851   0.2879   0.2953   0.3367   0.3489   0.3499   0.3595   0.3629
  0.3734   0.3873   0.4102   0.4322   0.4603   0.4754   0.5179   0.5262
  0.7282   0.7785   0.8088   0.8482   0.8561   0.8783   0.9265   0.9325
  0.9981   1.0192   1.0316   1.0574   1.0760   1.0914   1.0961   1.1153
  1.1160   1.1277   1.1324   1.1809   1.1935   1.2115   1.2357   1.2628
  1.3140   1.3444   1.4093   1.4421   1.5265   1.5489   1.5697   1.5883
  1.6175   1.6393   1.6677   1.6898   1.7375   1.7794   1.8168   1.9269
  1.9531   1.9699   2.0264   2.1445   2.1821   2.2760   2.3098   2.3972
  2.4603   2.5110   2.5279   2.5442   2.6774   2.7896   3.4454   3.5655
  3.5700   3.6187   3.6725   3.6850   3.7104   3.7356   3.7951   3.8397
  3.8806   3.9394   3.9694   4.0124   4.0282   4.0473   4.0743   4.4212
  4.4676   4.4970   4.5086   4.6032   4.6436   4.6972   4.7257   4.7381
  4.7549   4.8065   4.8903   4.9262   5.0281   5.0383   5.0427   5.0455
  5.0503   5.0572   5.0794   5.0955   5.0973   5.1250   5.1509   5.1787
  5.1943   5.2038   5.2187   5.2811   5.3045   5.3590   5.4268   5.4638
  5.4818   5.5183   5.5297   5.6315   5.6395   5.7060   5.7983   5.9596
  5.9951   6.1509   6.3244   6.5379   6.6751   6.6987   6.7209   6.7692
  6.7881   6.8000   6.8146   6.8251   6.8555   6.9078   7.0041   7.0704
  7.0840   7.1479   7.1884   7.1958   7.2149   7.2722   7.3157   7.3801
  7.4931   7.5570   7.6269   7.7220   7.7978   7.8575   7.9634   8.2855
 35.9363  36.1280  49.9902  50.1776  50.2412  50.2550
 --------------------------------------------------------------
 
 -----------------------------------------------------------------
                    Cartesian Multipole Moments
 -----------------------------------------------------------------
    Charge (ESU x 10^10)
                -0.0000
    Dipole Moment (Debye)
         X      -0.1243      Y      -0.8091      Z       0.1444
       Tot       0.8313
    Quadrupole Moments (Debye-Ang)
        XX     -34.6081     XY      -0.3330     YY     -33.6197
        XZ       0.3899     YZ      -3.2559     ZZ     -29.5482
    Octopole Moments (Debye-Ang^2)
       XXX     -37.6522    XXY     -13.6586    XYY     -11.3566
       YYY     -40.4424    XXZ     -97.6103    XYZ      -1.5992
       YYZ     -95.7711    XZZ      -6.1352    YZZ     -21.5144
       ZZZ    -256.9136
    Hexadecapole Moments (Debye-Ang^3)
      XXXX    -231.7244   XXXY     -81.3746   XXYY     -91.4608
      XYYY     -75.5070   YYYY    -309.7160   XXXZ     -62.8971
      XXYZ     -22.2262   XYYZ     -18.5011   YYYZ     -72.4776
      XXZZ    -328.1821   XYZZ     -29.4161   YYZZ    -334.5628
      XZZZ     -25.1169   YZZZ     -81.9608   ZZZZ   -1568.1909
 -----------------------------------------------------------------
Archival summary:
1\1\centos77-c5\SP\ProcedureUnspecified\BasisUnspecified\42(3)\shihchen\MonJul1315:05:072020MonJul1315:05:072020\0\\#,ProcedureUnspecified,BasisUnspecified,\\0,3\N\O,1,1.18339\O,1,1.19032,2,132.087\O,1,1.42048,2,119.081,3,-179.712,0\N,4,1.64349,1,111.633,2,102.589,0\O,5,1.16839,4,120.904,1,95.6949,0\\\@

 Total job time:  19.56s(wall), 106.89s(cpu) 
 Mon Jul 13 15:05:07 2020

        *************************************************************
        *                                                           *
        *  Thank you very much for using Q-Chem.  Have a nice day.  *
        *                                                           *
        *************************************************************


