                  Welcome to Q-Chem
     A Quantum Leap Into The Future Of Chemistry


 Q-Chem 5.3 (devel), Q-Chem, Inc., Pleasanton, CA (2020)

 Yihan Shao,  Zhengting Gan,  E. Epifanovsky,  A. T. B. Gilbert,  M. Wormit,  
 J. Kussmann,  A. W. Lange,  A. Behn,  Jia Deng,  Xintian Feng,  D. Ghosh,  
 M. Goldey,  P. R. Horn,  L. D. Jacobson,  I. Kaliman,  T. Kus,  A. Landau,  
 Jie Liu,  E. I. Proynov,  R. M. Richard,  R. P. Steele,  E. J. Sundstrom,  
 H. L. Woodcock III,  P. M. Zimmerman,  D. Zuev,  B. Alam,  B. Albrecht,  
 E. Alguire,  S. A. Baeppler,  D. Barton,  Z. Benda,  Y. A. Bernard,  
 E. J. Berquist,  K. B. Bravaya,  H. Burton,  K. Carter-Fenk,  D. Casanova,  
 Chun-Min Chang,  Yunqing Chen,  A. Chien,  K. D. Closser,  M. P. Coons,  
 S. Coriani,  S. Dasgupta,  A. L. Dempwolff,  M. Diedenhofen,  Hainam Do,  
 R. G. Edgar,  Po-Tung Fang,  S. Faraji,  S. Fatehi,  Qingguo Feng,  
 J. Fosso-Tande,  J. Gayvert,  Qinghui Ge,  A. Ghysels,  G. Gidofalvi,  
 J. Gomes,  J. Gonthier,  A. Gunina,  D. Hait,  M. W. D. Hanson-Heine,  
 P. H. P. Harbach,  A. W. Hauser,  M. F. Herbst,  J. E. Herr,  
 E. G. Hohenstein,  Z. C. Holden,  Kerwin Hui,  B. C. Huynh,  T.-C. Jagau,  
 Hyunjun Ji,  B. Kaduk,  K. Khistyaev,  Jaehoon Kim,  P. Klunzinger,  K. Koh,  
 D. Kosenkov,  L. Koulias,  T. Kowalczyk,  C. M. Krauter,  A. Kunitsa,  
 Ka Un Lao,  A. Laurent,  K. V. Lawler,  Joonho Lee,  D. Lefrancois,  
 S. Lehtola,  D. S. Levine,  Yi-Pei Li,  You-Sheng Lin,  Fenglai Liu,  
 Kuan-Yu Liu,  E. Livshits,  M. Loipersberger,  A. Luenser,  P. Manohar,  
 E. Mansoor,  S. F. Manzer,  Shan-Ping Mao,  Yuezhi Mao,  N. Mardirossian,  
 A. V. Marenich,  T. Markovich,  L. A. Martinez-Martinez,  S. A. Maurer,  
 N. J. Mayhall,  S. C. McKenzie,  J.-M. Mewes,  P. Morgante,  A. F. Morrison,  
 J. W. Mullinax,  K. Nanda,  T. S. Nguyen-Beck,  R. Olivares-Amaya,  
 K. J. Oosterbaan,  J. A. Parkhill,  S. K. Paul,  F. Pavosevic,  Zheng Pei,  
 T. M. Perrine,  F. Plasser,  P. Pokhilko,  S. Prager,  A. Prociuk,  
 E. Ramos,  B. Rana,  D. R. Rehn,  F. Rob,  M. Scheurer,  M. Schneider,  
 N. Sergueev,  S. M. Sharada,  S. Sharma,  D. W. Small,  T. Stauch,  
 C. J. Stein,  T. Stein,  Yu-Chuan Su,  S. P. Veccham,  Zhen Tao,  
 A. J. W. Thom,  A. Tkatchenko,  T. Tsuchimochi,  N. M. Tubman,  L. Vogt,  
 M. L. Vidal,  O. Vydrov,  M. A. Watson,  J. Wenzel,  M. de Wergifosse,  
 T. A. Wesolowski,  A. White,  J. Witte,  A. Yamada,  Jun Yang,  K. Yao,  
 S. Yeganeh,  S. R. Yost,  Zhi-Qiang You,  A. Zech,  Igor Ying Zhang,  
 Xing Zhang,  Yan Zhao,  Ying Zhu,  B. R. Brooks,  G. K. L. Chan,  
 C. J. Cramer,  M. S. Gordon,  W. J. Hehre,  A. Klamt,  M. W. Schmidt,  
 C. D. Sherrill,  D. G. Truhlar,  A. Aspuru-Guzik,  R. Baer,  A. T. Bell,  
 N. A. Besley,  Jeng-Da Chai,  A. E. DePrince, III,  R. A. DiStasio Jr.,  
 A. Dreuw,  B. D. Dunietz,  T. R. Furlani,  Chao-Ping Hsu,  Yousung Jung,  
 Jing Kong,  D. S. Lambrecht,  WanZhen Liang,  C. Ochsenfeld,  
 V. A. Rassolov,  L. V. Slipchenko,  J. E. Subotnik,  T. Van Voorhis,  
 J. M. Herbert,  A. I. Krylov,  P. M. W. Gill,  M. Head-Gordon

 Contributors to earlier versions of Q-Chem not listed above: 
 R. D. Adamson,  B. Austin,  J. Baker,  G. J. O. Beran,  K. Brandhorst,  
 S. T. Brown,  E. F. C. Byrd,  A. K. Chakraborty,  C.-L. Cheng,  
 Siu Hung Chien,  D. M. Chipman,  D. L. Crittenden,  H. Dachsel,  
 R. J. Doerksen,  A. D. Dutoi,  L. Fusti-Molnar,  W. A. Goddard III,  
 A. Golubeva-Zadorozhnaya,  S. R. Gwaltney,  G. Hawkins,  A. Heyden,  
 S. Hirata,  G. Kedziora,  F. J. Keil,  C. Kelley,  Jihan Kim,  R. A. King,  
 R. Z. Khaliullin,  P. P. Korambath,  W. Kurlancheek,  A. M. Lee,  M. S. Lee,  
 S. V. Levchenko,  Ching Yeh Lin,  D. Liotard,  R. C. Lochan,  I. Lotan,  
 P. E. Maslen,  N. Nair,  D. P. O'Neill,  D. Neuhauser,  E. Neuscamman,  
 C. M. Oana,  R. Olson,  B. Peters,  R. Peverati,  P. A. Pieniazek,  
 Y. M. Rhee,  J. Ritchie,  M. A. Rohrdanz,  E. Rosta,  N. J. Russ,  
 H. F. Schaefer III,  N. E. Schultz,  N. Shenvi,  A. C. Simmonett,  A. Sodt,  
 D. Stuck,  K. S. Thanthiriwatte,  V. Vanovschi,  Tao Wang,  A. Warshel,  
 C. F. Williams,  Q. Wu,  X. Xu,  W. Zhang

 Please cite Q-Chem as follows:
 Y. Shao et al., Mol. Phys. 113, 184-215 (2015)
 DOI: 10.1080/00268976.2014.952696

 Q-Chem 5.3.0 for Intel X86 EM64T Linux

 Parts of Q-Chem use Armadillo 9.800.1 (Horizon Scraper).
 http://arma.sourceforge.net/

 Q-Chem begins on Mon Jul 13 15:08:33 2020  

Host: centos77-c5
0

     Scratch files written to /tmp/29025.centos77-h1/qchem85598//
Processing $rem in /opt/qchem-5.3.0-intel2020u1//config/preferences:
Processing $rem in /home/shihchengli/.qchemrc:

Checking the input file for inconsistencies... 	...done.

--------------------------------------------------------------
User input:
--------------------------------------------------------------
$rem
   JOBTYPE  sp
   EXCHANGE   omegaB97X-D
   BASIS   6-311+G(2df,2pd)
   UNRESTRICTED   True
   max_scf_cycles   250
   geom_opt_max_cycles   1500
   basis2 6-31G*
   scf_algorithm rca_diis
   SYM_IGNORE  TRUE
   print_input   true
   geom_opt_dmax   80
   pop_mulliken false
   XC_GRID 000075000302
$end

$molecule
0 3
N       0.9335958109     1.1150574018     2.5693146839
O       0.5549626776     1.7929095597     3.4715436969
O       1.2696956348     1.3788245447     1.4657372497
N       -0.4866380763     -0.7018975646     3.6284262250
O       -1.2836810239     -1.2492718732     2.9724922599
O       0.9570561071     -0.2406329586     2.9927857745
$end
--------------------------------------------------------------
 ----------------------------------------------------------------
             Standard Nuclear Orientation (Angstroms)
    I     Atom           X                Y                Z
 ----------------------------------------------------------------
    1      N       0.9335958109     1.1150574018     2.5693146839
    2      O       0.5549626776     1.7929095597     3.4715436969
    3      O       1.2696956348     1.3788245447     1.4657372497
    4      N      -0.4866380763    -0.7018975646     3.6284262250
    5      O      -1.2836810239    -1.2492718732     2.9724922599
    6      O       0.9570561071    -0.2406329586     2.9927857745
 ----------------------------------------------------------------
 Nuclear Repulsion Energy =         231.31168862 hartrees
 There are       24 alpha and       22 beta electrons
 Requested basis set is 6-311+G(2df,2pd)
 There are 48 shells and 204 basis functions

 Total QAlloc Memory Limit   2000 MB
 Mega-Array Size       188 MB
 MEM_STATIC part       192 MB

                       Distance Matrix (Angstroms)
             N (  1)   O (  2)   O (  3)   N (  4)   O (  5)
   O (  2)  1.190321
   O (  3)  1.183393  2.169232
   N (  4)  2.537737  2.708063  3.477260
   O (  5)  3.266332  3.589503  3.961936  1.168394
   O (  6)  1.420484  2.127483  2.247724  1.643489  2.457370
 
 A cutoff of  1.0D-09 yielded   1021 shell pairs
 There are     19069 function pairs (     25031 Cartesian)
 Smallest overlap matrix eigenvalue = 5.58E-04

 Scale SEOQF with 1.000000e-01/1.000000e-01/1.000000e-01

 Standard Electronic Orientation quadrupole field applied
 Nucleus-field energy     =    -0.0000000360 hartrees
 Requested basis set is 6-31G(d)
 There are 24 shells and 84 basis functions
 A cutoff of  1.0D-09 yielded    267 shell pairs
 There are      3518 function pairs (      4046 Cartesian)
 Smallest overlap matrix eigenvalue = 4.82E-03
 Guess from superposition of atomic densities
 Warning:  Energy on first SCF cycle will be non-variational
 SAD guess density has 46.000000 electrons
 Long-range K will be added via erf
 Coulomb attenuation parameter = 0.2 bohr**(-1)
 An unrestricted hybrid HF-DFT SCF calculation will be
 performed using Relaxed Constraint Minimization + Pulay DIIS
 Exchange:     0.2220 Hartree-Fock + 1.0000 wB97X-D + LR-HF
 Correlation:  1.0000 wB97X-D
 Using Euler-Maclaurin-Lebedev (75,302) quadrature formula
 Dispersion:   Grimme D
 SCF converges when DIIS error is below 1.0E-04
 using 6 threads for integral computing
 -------------------------------------------------------
 OpenMP Integral computing Module                
 Release: version 1.0, May 2013, Q-Chem Inc. Pittsburgh 
 -------------------------------------------------------
 using 6 threads for integral computing
 -------------------------------------------------------
 OpenMP Integral computing Module                
 Release: version 1.0, May 2013, Q-Chem Inc. Pittsburgh 
 -------------------------------------------------------
 ---------------------------------------
  Cycle       Energy         DIIS Error
 ---------------------------------------
    1    -411.0318642324      8.84E-02
    2    -409.6413100059      1.97E-02
    3    -409.7480924156      4.35E-03
    4    -409.8998999836      4.59E-03
    5    -409.9058693648      6.31E-04 Done RCA. Switching to DIIS
    6    -409.9139124612      5.06E-04
    7    -409.9143150420      1.21E-04
    8    -409.9143972180      7.22E-05 Convergence criterion met
 ---------------------------------------
 <S^2> = 2.0169
 SCF time:  CPU 14.82 s  wall 2.48 s
 SCF   energy in the small basis set = -409.91439722
 Total energy in the small basis set = -409.91439722
 ----------------------------------------------------
  Cycle       Energy    
 ----------------------------------------------------
    1     -41.7617639625     -4.18E+01
 Long-range K will be added via erf
 Coulomb attenuation parameter = 0.2 bohr**(-1)
 An unrestricted hybrid HF-DFT SCF calculation will be
 performed using Relaxed Constraint Minimization + Pulay DIIS
 Exchange:     0.2220 Hartree-Fock + 1.0000 wB97X-D + LR-HF
 Correlation:  1.0000 wB97X-D
 Using Euler-Maclaurin-Lebedev (75,302) quadrature formula
 Dispersion:   Grimme D
 SCF converges when DIIS error is below 1.0E-05
 Basis2 calculation detected. Using small basis as guess for larger.
 SCFMinFind is unable to tell whether the solution found is close.
 Resetting ReadMinima to 0 and attempting to follow guess.
 SCFMinFind following SCF Guess.
 using 6 threads for integral computing
 -------------------------------------------------------
 OpenMP Integral computing Module                
 Release: version 1.0, May 2013, Q-Chem Inc. Pittsburgh 
 -------------------------------------------------------
 using 6 threads for integral computing
 -------------------------------------------------------
 OpenMP Integral computing Module                
 Release: version 1.0, May 2013, Q-Chem Inc. Pittsburgh 
 -------------------------------------------------------
 ---------------------------------------
  Cycle       Energy         DIIS Error
 ---------------------------------------
    1    -409.9897248863      8.11E-03
    2    -409.9992107260      4.55E-03
    3    -410.0255099209      1.13E-03
    4    -410.0632618066      1.13E-03
    5    -410.0654787346      1.52E-04 Done RCA. Switching to DIIS
    6    -410.0688543354      1.36E-04
    7    -410.0692863678      6.19E-05
    8    -410.0696145654      5.45E-05
    9    -410.0697639785      3.23E-05
   10    -410.0698900715      2.01E-05
   11    -410.0699743888      1.09E-05
   12    -410.0699976702      4.15E-06 Convergence criterion met
 ---------------------------------------
 <S^2> = 2.0192
 SCF time:  CPU 76.42 s  wall 12.77 s
 SCF   energy in the final basis set = -410.06999767
 Total energy in the final basis set = -410.06999767
 
 --------------------------------------------------------------
 
                    Orbital Energies (a.u.)
 --------------------------------------------------------------
 
 Alpha MOs
 -- Occupied --
-19.4091 -19.3989 -19.3583 -19.3377 -14.7711 -14.6231  -1.4440  -1.3694
 -1.2605  -1.2057  -0.8763  -0.7766  -0.7248  -0.7153  -0.6788  -0.6530
 -0.6364  -0.6318  -0.5166  -0.4880  -0.4638  -0.4585  -0.4364  -0.3411
 -- Virtual --
 -0.0386   0.0151   0.0808   0.1180   0.1250   0.1320   0.1399   0.1742
  0.1791   0.1814   0.2305   0.2346   0.2534   0.2687   0.2809   0.2901
  0.2951   0.3254   0.3423   0.3481   0.3573   0.3653   0.3784   0.3959
  0.4062   0.4303   0.4432   0.4521   0.4928   0.5245   0.7040   0.7820
  0.8129   0.8224   0.8556   0.8597   0.9232   0.9349   0.9713   1.0007
  1.0110   1.0469   1.0540   1.0726   1.0937   1.1064   1.1216   1.1281
  1.1465   1.1554   1.1827   1.2025   1.2131   1.2508   1.3017   1.3290
  1.4053   1.4460   1.5237   1.5400   1.5553   1.5782   1.6029   1.6133
  1.6494   1.6768   1.7043   1.7851   1.8012   1.8875   1.9335   1.9628
  2.0352   2.1323   2.1730   2.2465   2.2938   2.3697   2.4429   2.5056
  2.5253   2.5495   2.6756   2.7909   3.4361   3.5397   3.5416   3.6028
  3.6526   3.6798   3.7062   3.7268   3.7599   3.7899   3.8257   3.9180
  3.9488   3.9971   4.0016   4.0478   4.0813   4.4174   4.4471   4.4890
  4.5099   4.5862   4.6362   4.6629   4.6891   4.7115   4.7353   4.7703
  4.8374   4.8879   4.9949   5.0140   5.0183   5.0285   5.0403   5.0437
  5.0681   5.0805   5.1006   5.1158   5.1207   5.1335   5.1559   5.1775
  5.2183   5.2407   5.2942   5.3524   5.4122   5.4379   5.4648   5.4993
  5.5580   5.5705   5.6336   5.6968   5.7984   5.9165   6.0038   6.1192
  6.2955   6.5369   6.6278   6.6529   6.7090   6.7289   6.7497   6.7691
  6.8159   6.8200   6.8381   6.9036   6.9772   7.0509   7.0710   7.1362
  7.1504   7.1683   7.1843   7.2787   7.3069   7.3754   7.4475   7.5385
  7.6143   7.6945   7.7876   7.8638   7.9267   8.2820  35.9094  36.1238
 49.9721  50.1650  50.2393  50.2533
 
 Beta MOs
 -- Occupied --
-19.3948 -19.3820 -19.3566 -19.3379 -14.7710 -14.6048  -1.4394  -1.3325
 -1.2570  -1.1709  -0.8340  -0.7463  -0.7139  -0.7034  -0.6716  -0.5978
 -0.5873  -0.5623  -0.4904  -0.4692  -0.4605  -0.4295
 -- Virtual --
 -0.1562  -0.0289  -0.0088   0.0545   0.0917   0.1237   0.1330   0.1404
  0.1458   0.1762   0.1844   0.1845   0.2322   0.2369   0.2555   0.2722
  0.2827   0.2912   0.3030   0.3288   0.3434   0.3499   0.3590   0.3667
  0.3822   0.4046   0.4109   0.4343   0.4504   0.4553   0.5058   0.5313
  0.7174   0.7932   0.8187   0.8392   0.8660   0.8734   0.9279   0.9424
  0.9788   1.0129   1.0211   1.0638   1.0720   1.0795   1.1071   1.1147
  1.1309   1.1345   1.1502   1.1739   1.1945   1.2137   1.2261   1.2632
  1.3175   1.3417   1.4115   1.4599   1.5377   1.5491   1.5623   1.5885
  1.6170   1.6270   1.6605   1.6996   1.7194   1.7895   1.8110   1.9010
  1.9375   1.9744   2.0510   2.1564   2.1811   2.2585   2.3033   2.3819
  2.4579   2.5137   2.5335   2.5553   2.6836   2.7936   3.4535   3.5728
  3.5784   3.6147   3.6660   3.6960   3.7098   3.7379   3.7955   3.8317
  3.8538   3.9367   3.9764   4.0079   4.0127   4.0616   4.0956   4.4193
  4.4541   4.4909   4.5134   4.6112   4.6442   4.6973   4.7291   4.7352
  4.7576   4.8081   4.8757   4.9374   5.0162   5.0378   5.0424   5.0483
  5.0534   5.0574   5.0807   5.0876   5.1211   5.1286   5.1418   5.1573
  5.1789   5.2045   5.2350   5.2674   5.3160   5.3622   5.4295   5.4544
  5.4701   5.5216   5.5774   5.5883   5.6505   5.7163   5.8032   5.9266
  6.0210   6.1579   6.3017   6.5389   6.6498   6.6973   6.7384   6.7729
  6.7911   6.8026   6.8191   6.8246   6.8469   6.9066   7.0052   7.0762
  7.0855   7.1643   7.1670   7.1938   7.2065   7.2888   7.3193   7.3847
  7.4750   7.5426   7.6484   7.7225   7.7921   7.8708   7.9442   8.2834
 35.9316  36.1239  49.9873  50.1807  50.2404  50.2540
 --------------------------------------------------------------
 
 -----------------------------------------------------------------
                    Cartesian Multipole Moments
 -----------------------------------------------------------------
    Charge (ESU x 10^10)
                -0.0000
    Dipole Moment (Debye)
         X      -0.1337      Y      -0.7160      Z       0.1993
       Tot       0.7552
    Quadrupole Moments (Debye-Ang)
        XX     -31.2077     XY      -0.3512     YY     -34.3778
        XZ       0.0431     YZ      -2.5267     ZZ     -32.0267
    Octopole Moments (Debye-Ang^2)
       XXX     -28.4427    XXY      -9.3585    XYY     -11.2328
       YYY     -39.9246    XXZ     -87.1241    XYZ       0.6649
       YYZ     -98.2021    XZZ     -12.4524    YZZ     -22.8300
       ZZZ    -276.6214
    Hexadecapole Moments (Debye-Ang^3)
      XXXX    -194.2196   XXXY     -83.2333   XXYY     -82.0624
      XYYY     -90.8479   YYYY    -307.3658   XXXZ     -47.6663
      XXYZ     -15.3107   XYYZ     -19.8650   YYYZ     -86.0315
      XXZZ    -298.6637   XYZZ     -24.3544   YYZZ    -352.2716
      XZZZ     -75.9759   YZZZ    -119.4169   ZZZZ   -1696.6639
 -----------------------------------------------------------------
Archival summary:
1\1\centos77-c5\SP\ProcedureUnspecified\BasisUnspecified\42(3)\shihchen\MonJul1315:08:512020MonJul1315:08:512020\0\\#,ProcedureUnspecified,BasisUnspecified,\\0,3\N\O,1,1.18339\O,1,1.19032,2,132.087\O,1,1.42048,2,119.081,3,-179.712,0\N,4,1.64349,1,111.633,2,-127.411,0\O,5,1.16839,4,120.904,1,95.6949,0\\\@

 Total job time:  17.65s(wall), 95.63s(cpu) 
 Mon Jul 13 15:08:51 2020

        *************************************************************
        *                                                           *
        *  Thank you very much for using Q-Chem.  Have a nice day.  *
        *                                                           *
        *************************************************************


