                  Welcome to Q-Chem
     A Quantum Leap Into The Future Of Chemistry


 Q-Chem 5.3 (devel), Q-Chem, Inc., Pleasanton, CA (2020)

 Yihan Shao,  Zhengting Gan,  E. Epifanovsky,  A. T. B. Gilbert,  M. Wormit,  
 J. Kussmann,  A. W. Lange,  A. Behn,  Jia Deng,  Xintian Feng,  D. Ghosh,  
 M. Goldey,  P. R. Horn,  L. D. Jacobson,  I. Kaliman,  T. Kus,  A. Landau,  
 Jie Liu,  E. I. Proynov,  R. M. Richard,  R. P. Steele,  E. J. Sundstrom,  
 H. L. Woodcock III,  P. M. Zimmerman,  D. Zuev,  B. Alam,  B. Albrecht,  
 E. Alguire,  S. A. Baeppler,  D. Barton,  Z. Benda,  Y. A. Bernard,  
 E. J. Berquist,  K. B. Bravaya,  H. Burton,  K. Carter-Fenk,  D. Casanova,  
 Chun-Min Chang,  Yunqing Chen,  A. Chien,  K. D. Closser,  M. P. Coons,  
 S. Coriani,  S. Dasgupta,  A. L. Dempwolff,  M. Diedenhofen,  Hainam Do,  
 R. G. Edgar,  Po-Tung Fang,  S. Faraji,  S. Fatehi,  Qingguo Feng,  
 J. Fosso-Tande,  J. Gayvert,  Qinghui Ge,  A. Ghysels,  G. Gidofalvi,  
 J. Gomes,  J. Gonthier,  A. Gunina,  D. Hait,  M. W. D. Hanson-Heine,  
 P. H. P. Harbach,  A. W. Hauser,  M. F. Herbst,  J. E. Herr,  
 E. G. Hohenstein,  Z. C. Holden,  Kerwin Hui,  B. C. Huynh,  T.-C. Jagau,  
 Hyunjun Ji,  B. Kaduk,  K. Khistyaev,  Jaehoon Kim,  P. Klunzinger,  K. Koh,  
 D. Kosenkov,  L. Koulias,  T. Kowalczyk,  C. M. Krauter,  A. Kunitsa,  
 Ka Un Lao,  A. Laurent,  K. V. Lawler,  Joonho Lee,  D. Lefrancois,  
 S. Lehtola,  D. S. Levine,  Yi-Pei Li,  You-Sheng Lin,  Fenglai Liu,  
 Kuan-Yu Liu,  E. Livshits,  M. Loipersberger,  A. Luenser,  P. Manohar,  
 E. Mansoor,  S. F. Manzer,  Shan-Ping Mao,  Yuezhi Mao,  N. Mardirossian,  
 A. V. Marenich,  T. Markovich,  L. A. Martinez-Martinez,  S. A. Maurer,  
 N. J. Mayhall,  S. C. McKenzie,  J.-M. Mewes,  P. Morgante,  A. F. Morrison,  
 J. W. Mullinax,  K. Nanda,  T. S. Nguyen-Beck,  R. Olivares-Amaya,  
 K. J. Oosterbaan,  J. A. Parkhill,  S. K. Paul,  F. Pavosevic,  Zheng Pei,  
 T. M. Perrine,  F. Plasser,  P. Pokhilko,  S. Prager,  A. Prociuk,  
 E. Ramos,  B. Rana,  D. R. Rehn,  F. Rob,  M. Scheurer,  M. Schneider,  
 N. Sergueev,  S. M. Sharada,  S. Sharma,  D. W. Small,  T. Stauch,  
 C. J. Stein,  T. Stein,  Yu-Chuan Su,  S. P. Veccham,  Zhen Tao,  
 A. J. W. Thom,  A. Tkatchenko,  T. Tsuchimochi,  N. M. Tubman,  L. Vogt,  
 M. L. Vidal,  O. Vydrov,  M. A. Watson,  J. Wenzel,  M. de Wergifosse,  
 T. A. Wesolowski,  A. White,  J. Witte,  A. Yamada,  Jun Yang,  K. Yao,  
 S. Yeganeh,  S. R. Yost,  Zhi-Qiang You,  A. Zech,  Igor Ying Zhang,  
 Xing Zhang,  Yan Zhao,  Ying Zhu,  B. R. Brooks,  G. K. L. Chan,  
 C. J. Cramer,  M. S. Gordon,  W. J. Hehre,  A. Klamt,  M. W. Schmidt,  
 C. D. Sherrill,  D. G. Truhlar,  A. Aspuru-Guzik,  R. Baer,  A. T. Bell,  
 N. A. Besley,  Jeng-Da Chai,  A. E. DePrince, III,  R. A. DiStasio Jr.,  
 A. Dreuw,  B. D. Dunietz,  T. R. Furlani,  Chao-Ping Hsu,  Yousung Jung,  
 Jing Kong,  D. S. Lambrecht,  WanZhen Liang,  C. Ochsenfeld,  
 V. A. Rassolov,  L. V. Slipchenko,  J. E. Subotnik,  T. Van Voorhis,  
 J. M. Herbert,  A. I. Krylov,  P. M. W. Gill,  M. Head-Gordon

 Contributors to earlier versions of Q-Chem not listed above: 
 R. D. Adamson,  B. Austin,  J. Baker,  G. J. O. Beran,  K. Brandhorst,  
 S. T. Brown,  E. F. C. Byrd,  A. K. Chakraborty,  C.-L. Cheng,  
 Siu Hung Chien,  D. M. Chipman,  D. L. Crittenden,  H. Dachsel,  
 R. J. Doerksen,  A. D. Dutoi,  L. Fusti-Molnar,  W. A. Goddard III,  
 A. Golubeva-Zadorozhnaya,  S. R. Gwaltney,  G. Hawkins,  A. Heyden,  
 S. Hirata,  G. Kedziora,  F. J. Keil,  C. Kelley,  Jihan Kim,  R. A. King,  
 R. Z. Khaliullin,  P. P. Korambath,  W. Kurlancheek,  A. M. Lee,  M. S. Lee,  
 S. V. Levchenko,  Ching Yeh Lin,  D. Liotard,  R. C. Lochan,  I. Lotan,  
 P. E. Maslen,  N. Nair,  D. P. O'Neill,  D. Neuhauser,  E. Neuscamman,  
 C. M. Oana,  R. Olson,  B. Peters,  R. Peverati,  P. A. Pieniazek,  
 Y. M. Rhee,  J. Ritchie,  M. A. Rohrdanz,  E. Rosta,  N. J. Russ,  
 H. F. Schaefer III,  N. E. Schultz,  N. Shenvi,  A. C. Simmonett,  A. Sodt,  
 D. Stuck,  K. S. Thanthiriwatte,  V. Vanovschi,  Tao Wang,  A. Warshel,  
 C. F. Williams,  Q. Wu,  X. Xu,  W. Zhang

 Please cite Q-Chem as follows:
 Y. Shao et al., Mol. Phys. 113, 184-215 (2015)
 DOI: 10.1080/00268976.2014.952696

 Q-Chem 5.3.0 for Intel X86 EM64T Linux

 Parts of Q-Chem use Armadillo 9.800.1 (Horizon Scraper).
 http://arma.sourceforge.net/

 Q-Chem begins on Mon Jul 13 15:06:22 2020  

Host: centos77-c5
0

     Scratch files written to /tmp/29025.centos77-h1/qchem45778//
Processing $rem in /opt/qchem-5.3.0-intel2020u1//config/preferences:
Processing $rem in /home/shihchengli/.qchemrc:

Checking the input file for inconsistencies... 	...done.

--------------------------------------------------------------
User input:
--------------------------------------------------------------
$rem
   JOBTYPE  sp
   EXCHANGE   omegaB97X-D
   BASIS   6-311+G(2df,2pd)
   UNRESTRICTED   True
   max_scf_cycles   250
   geom_opt_max_cycles   1500
   basis2 6-31G*
   scf_algorithm rca_diis
   SYM_IGNORE  TRUE
   print_input   true
   geom_opt_dmax   80
   pop_mulliken false
   XC_GRID 000075000302
$end

$molecule
0 3
N       0.9032581415     1.1042650015     2.4707202777
O       0.0007445436     1.5845960770     3.0803226507
O       1.8658569499     1.5794146607     1.9726683868
N       -0.1852686042     -0.8646237474     3.6448980832
O       -1.3407189713     -1.0097138342     3.5498782085
O       0.7011190706     -0.2989490476     2.3818122832
$end
--------------------------------------------------------------
 ----------------------------------------------------------------
             Standard Nuclear Orientation (Angstroms)
    I     Atom           X                Y                Z
 ----------------------------------------------------------------
    1      N       0.9032581415     1.1042650015     2.4707202777
    2      O       0.0007445436     1.5845960770     3.0803226507
    3      O       1.8658569499     1.5794146607     1.9726683868
    4      N      -0.1852686042    -0.8646237474     3.6448980832
    5      O      -1.3407189713    -1.0097138342     3.5498782085
    6      O       0.7011190706    -0.2989490476     2.3818122832
 ----------------------------------------------------------------
 Nuclear Repulsion Energy =         232.97135714 hartrees
 There are       24 alpha and       22 beta electrons
 Requested basis set is 6-311+G(2df,2pd)
 There are 48 shells and 204 basis functions

 Total QAlloc Memory Limit   2000 MB
 Mega-Array Size       188 MB
 MEM_STATIC part       192 MB

                       Distance Matrix (Angstroms)
             N (  1)   O (  2)   O (  3)   N (  4)   O (  5)
   O (  2)  1.190321
   O (  3)  1.183393  2.169232
   N (  4)  2.537737  2.520322  3.602331
   O (  5)  3.266332  2.958116  4.412857  1.168394
   O (  6)  1.420484  2.127483  2.247724  1.643489  2.457370
 
 A cutoff of  1.0D-09 yielded   1032 shell pairs
 There are     19280 function pairs (     25333 Cartesian)
 Smallest overlap matrix eigenvalue = 5.88E-04

 Scale SEOQF with 1.000000e-01/1.000000e-01/1.000000e-01

 Standard Electronic Orientation quadrupole field applied
 Nucleus-field energy     =    -0.0000000353 hartrees
 Requested basis set is 6-31G(d)
 There are 24 shells and 84 basis functions
 A cutoff of  1.0D-09 yielded    269 shell pairs
 There are      3538 function pairs (      4066 Cartesian)
 Smallest overlap matrix eigenvalue = 4.75E-03
 Guess from superposition of atomic densities
 Warning:  Energy on first SCF cycle will be non-variational
 SAD guess density has 46.000000 electrons
 Long-range K will be added via erf
 Coulomb attenuation parameter = 0.2 bohr**(-1)
 An unrestricted hybrid HF-DFT SCF calculation will be
 performed using Relaxed Constraint Minimization + Pulay DIIS
 Exchange:     0.2220 Hartree-Fock + 1.0000 wB97X-D + LR-HF
 Correlation:  1.0000 wB97X-D
 Using Euler-Maclaurin-Lebedev (75,302) quadrature formula
 Dispersion:   Grimme D
 SCF converges when DIIS error is below 1.0E-04
 using 6 threads for integral computing
 -------------------------------------------------------
 OpenMP Integral computing Module                
 Release: version 1.0, May 2013, Q-Chem Inc. Pittsburgh 
 -------------------------------------------------------
 using 6 threads for integral computing
 -------------------------------------------------------
 OpenMP Integral computing Module                
 Release: version 1.0, May 2013, Q-Chem Inc. Pittsburgh 
 -------------------------------------------------------
 ---------------------------------------
  Cycle       Energy         DIIS Error
 ---------------------------------------
    1    -411.0374477717      8.85E-02
    2    -409.6452552176      1.96E-02
    3    -409.7510321667      4.37E-03
    4    -409.9013306237      4.57E-03
    5    -409.9072298519      6.21E-04 Done RCA. Switching to DIIS
    6    -409.9150949625      5.09E-04
    7    -409.9154610658      1.13E-04
    8    -409.9155288494      6.42E-05 Convergence criterion met
 ---------------------------------------
 <S^2> = 2.0163
 SCF time:  CPU 14.77 s  wall 2.48 s
 SCF   energy in the small basis set = -409.91552885
 Total energy in the small basis set = -409.91552885
 ----------------------------------------------------
  Cycle       Energy    
 ----------------------------------------------------
    1     -41.7642234467     -4.18E+01
 Long-range K will be added via erf
 Coulomb attenuation parameter = 0.2 bohr**(-1)
 An unrestricted hybrid HF-DFT SCF calculation will be
 performed using Relaxed Constraint Minimization + Pulay DIIS
 Exchange:     0.2220 Hartree-Fock + 1.0000 wB97X-D + LR-HF
 Correlation:  1.0000 wB97X-D
 Using Euler-Maclaurin-Lebedev (75,302) quadrature formula
 Dispersion:   Grimme D
 SCF converges when DIIS error is below 1.0E-05
 Basis2 calculation detected. Using small basis as guess for larger.
 SCFMinFind is unable to tell whether the solution found is close.
 Resetting ReadMinima to 0 and attempting to follow guess.
 SCFMinFind following SCF Guess.
 using 6 threads for integral computing
 -------------------------------------------------------
 OpenMP Integral computing Module                
 Release: version 1.0, May 2013, Q-Chem Inc. Pittsburgh 
 -------------------------------------------------------
 using 6 threads for integral computing
 -------------------------------------------------------
 OpenMP Integral computing Module                
 Release: version 1.0, May 2013, Q-Chem Inc. Pittsburgh 
 -------------------------------------------------------
 ---------------------------------------
  Cycle       Energy         DIIS Error
 ---------------------------------------
    1    -409.9993360864      8.06E-03
    2    -410.0093935639      4.29E-03
    3    -410.0323851312      1.12E-03
    4    -410.0653027494      1.16E-03
    5    -410.0673641997      1.69E-04 Done RCA. Switching to DIIS
    6    -410.0704397494      1.61E-04
    7    -410.0707212072      5.89E-05
    8    -410.0708801720      3.31E-05
    9    -410.0709600265      1.75E-05
   10    -410.0710027618      9.66E-06 Convergence criterion met
 ---------------------------------------
 <S^2> = 2.0192
 SCF time:  CPU 66.34 s  wall 11.09 s
 SCF   energy in the final basis set = -410.07100276
 Total energy in the final basis set = -410.07100276
 
 --------------------------------------------------------------
 
                    Orbital Energies (a.u.)
 --------------------------------------------------------------
 
 Alpha MOs
 -- Occupied --
-19.4074 -19.4036 -19.3553 -19.3342 -14.7698 -14.6226  -1.4422  -1.3714
 -1.2589  -1.2028  -0.8766  -0.7756  -0.7192  -0.7162  -0.6795  -0.6589
 -0.6361  -0.6311  -0.5072  -0.4875  -0.4622  -0.4583  -0.4365  -0.3415
 -- Virtual --
 -0.0258   0.0080   0.0803   0.1164   0.1254   0.1367   0.1389   0.1669
  0.1772   0.1849   0.2314   0.2384   0.2572   0.2653   0.2822   0.2946
  0.3034   0.3281   0.3381   0.3478   0.3557   0.3628   0.3667   0.3859
  0.4062   0.4282   0.4502   0.4516   0.4989   0.5290   0.7407   0.7769
  0.8056   0.8308   0.8411   0.8654   0.9294   0.9442   0.9817   1.0029
  1.0155   1.0364   1.0578   1.0634   1.0845   1.0981   1.1191   1.1360
  1.1449   1.1654   1.1722   1.2029   1.2272   1.2352   1.2959   1.3195
  1.4268   1.4409   1.5411   1.5666   1.5735   1.5894   1.5951   1.6081
  1.6584   1.6815   1.7073   1.7559   1.8204   1.9240   1.9541   1.9624
  1.9829   2.1313   2.2119   2.2988   2.3187   2.3472   2.4477   2.5104
  2.5239   2.5593   2.6901   2.8124   3.4937   3.5380   3.5390   3.6165
  3.6576   3.6639   3.7110   3.7298   3.7350   3.7653   3.7883   3.8995
  3.9577   4.0037   4.0194   4.0503   4.0976   4.4200   4.4468   4.4829
  4.5102   4.5939   4.6404   4.6794   4.6927   4.7183   4.7411   4.7753
  4.8273   4.9042   4.9957   5.0131   5.0170   5.0367   5.0432   5.0507
  5.0618   5.0783   5.1014   5.1107   5.1182   5.1293   5.1656   5.1925
  5.2202   5.2676   5.3149   5.3738   5.4086   5.4201   5.4591   5.5047
  5.5583   5.5763   5.6417   5.6652   5.8121   5.8901   6.0238   6.1149
  6.2930   6.5380   6.6512   6.6749   6.6778   6.7281   6.7359   6.7690
  6.8121   6.8341   6.8663   6.9048   6.9653   7.0325   7.0835   7.1424
  7.1619   7.1810   7.1980   7.2492   7.3165   7.3745   7.4754   7.5552
  7.6435   7.6928   7.7898   7.8818   7.9088   8.2966  35.9097  36.1258
 49.9948  50.1628  50.2470  50.2608
 
 Beta MOs
 -- Occupied --
-19.3939 -19.3855 -19.3539 -19.3343 -14.7697 -14.6047  -1.4377  -1.3331
 -1.2554  -1.1696  -0.8329  -0.7435  -0.7123  -0.7034  -0.6704  -0.6054
 -0.5836  -0.5601  -0.4845  -0.4675  -0.4585  -0.4335
 -- Virtual --
 -0.1586  -0.0197  -0.0091   0.0563   0.0900   0.1213   0.1368   0.1416
  0.1459   0.1707   0.1804   0.1891   0.2337   0.2430   0.2587   0.2701
  0.2842   0.2974   0.3081   0.3304   0.3394   0.3503   0.3575   0.3661
  0.3695   0.3927   0.4108   0.4354   0.4523   0.4610   0.5140   0.5326
  0.7510   0.7967   0.8115   0.8467   0.8487   0.8767   0.9363   0.9497
  0.9958   1.0087   1.0235   1.0533   1.0683   1.0766   1.0907   1.1157
  1.1269   1.1494   1.1508   1.1684   1.1895   1.2160   1.2386   1.2487
  1.3116   1.3342   1.4345   1.4559   1.5459   1.5719   1.5882   1.5966
  1.6115   1.6243   1.6765   1.6986   1.7255   1.7630   1.8271   1.9286
  1.9623   1.9841   1.9946   2.1445   2.2270   2.3065   2.3375   2.3553
  2.4643   2.5227   2.5283   2.5638   2.6980   2.8155   3.5106   3.5664
  3.5739   3.6315   3.6662   3.6800   3.7178   3.7369   3.7474   3.7954
  3.8570   3.9198   3.9892   4.0149   4.0225   4.0668   4.1105   4.4226
  4.4539   4.4861   4.5122   4.6171   4.6589   4.7056   4.7267   4.7451
  4.7613   4.8100   4.8692   4.9544   5.0161   5.0393   5.0466   5.0533
  5.0568   5.0597   5.0831   5.0880   5.1107   5.1195   5.1447   5.1572
  5.1937   5.2199   5.2297   5.2930   5.3355   5.3789   5.4250   5.4371
  5.4708   5.5259   5.5744   5.5966   5.6560   5.6875   5.8171   5.9006
  6.0386   6.1561   6.2990   6.5402   6.6862   6.6961   6.7125   6.7727
  6.7945   6.7989   6.8182   6.8399   6.8703   6.9085   7.0002   7.0435
  7.0951   7.1672   7.1734   7.2116   7.2264   7.2595   7.3304   7.3895
  7.4990   7.5599   7.6748   7.7225   7.7955   7.8882   7.9269   8.2979
 35.9312  36.1260  50.0092  50.1797  50.2480  50.2613
 --------------------------------------------------------------
 
 -----------------------------------------------------------------
                    Cartesian Multipole Moments
 -----------------------------------------------------------------
    Charge (ESU x 10^10)
                -0.0000
    Dipole Moment (Debye)
         X      -0.1563      Y      -0.8707      Z       0.1989
       Tot       0.9067
    Quadrupole Moments (Debye-Ang)
        XX     -33.7394     XY      -0.4061     YY     -34.0571
        XZ       1.0844     YZ      -3.1247     ZZ     -29.6365
    Octopole Moments (Debye-Ang^2)
       XXX     -35.0191    XXY     -12.7444    XYY     -12.3992
       YYY     -39.8295    XXZ     -93.2964    XYZ       0.6925
       YYZ     -96.6957    XZZ      -4.0523    YZZ     -22.3186
       ZZZ    -257.4989
    Hexadecapole Moments (Debye-Ang^3)
      XXXX    -241.5593   XXXY     -88.3712   XXYY     -90.9923
      XYYY     -86.4401   YYYY    -292.9597   XXXZ     -39.6931
      XXYZ     -17.7785   XYYZ     -14.7338   YYYZ     -71.7407
      XXZZ    -314.4137   XYZZ     -20.7910   YYZZ    -336.4417
      XZZZ     -11.8383   YZZZ     -94.6412   ZZZZ   -1566.9442
 -----------------------------------------------------------------
Archival summary:
1\1\centos77-c5\SP\ProcedureUnspecified\BasisUnspecified\42(3)\shihchen\MonJul1315:06:382020MonJul1315:06:382020\0\\#,ProcedureUnspecified,BasisUnspecified,\\0,3\N\O,1,1.18339\O,1,1.19032,2,132.087\O,1,1.42048,2,119.081,3,-179.712,0\N,4,1.64349,1,111.633,2,152.589,0\O,5,1.16839,4,120.904,1,95.6949,0\\\@

 Total job time:  15.97s(wall), 85.43s(cpu) 
 Mon Jul 13 15:06:38 2020

        *************************************************************
        *                                                           *
        *  Thank you very much for using Q-Chem.  Have a nice day.  *
        *                                                           *
        *************************************************************


