                  Welcome to Q-Chem
     A Quantum Leap Into The Future Of Chemistry


 Q-Chem 5.3 (devel), Q-Chem, Inc., Pleasanton, CA (2020)

 Yihan Shao,  Zhengting Gan,  E. Epifanovsky,  A. T. B. Gilbert,  M. Wormit,  
 J. Kussmann,  A. W. Lange,  A. Behn,  Jia Deng,  Xintian Feng,  D. Ghosh,  
 M. Goldey,  P. R. Horn,  L. D. Jacobson,  I. Kaliman,  T. Kus,  A. Landau,  
 Jie Liu,  E. I. Proynov,  R. M. Richard,  R. P. Steele,  E. J. Sundstrom,  
 H. L. Woodcock III,  P. M. Zimmerman,  D. Zuev,  B. Alam,  B. Albrecht,  
 E. Alguire,  S. A. Baeppler,  D. Barton,  Z. Benda,  Y. A. Bernard,  
 E. J. Berquist,  K. B. Bravaya,  H. Burton,  K. Carter-Fenk,  D. Casanova,  
 Chun-Min Chang,  Yunqing Chen,  A. Chien,  K. D. Closser,  M. P. Coons,  
 S. Coriani,  S. Dasgupta,  A. L. Dempwolff,  M. Diedenhofen,  Hainam Do,  
 R. G. Edgar,  Po-Tung Fang,  S. Faraji,  S. Fatehi,  Qingguo Feng,  
 J. Fosso-Tande,  J. Gayvert,  Qinghui Ge,  A. Ghysels,  G. Gidofalvi,  
 J. Gomes,  J. Gonthier,  A. Gunina,  D. Hait,  M. W. D. Hanson-Heine,  
 P. H. P. Harbach,  A. W. Hauser,  M. F. Herbst,  J. E. Herr,  
 E. G. Hohenstein,  Z. C. Holden,  Kerwin Hui,  B. C. Huynh,  T.-C. Jagau,  
 Hyunjun Ji,  B. Kaduk,  K. Khistyaev,  Jaehoon Kim,  P. Klunzinger,  K. Koh,  
 D. Kosenkov,  L. Koulias,  T. Kowalczyk,  C. M. Krauter,  A. Kunitsa,  
 Ka Un Lao,  A. Laurent,  K. V. Lawler,  Joonho Lee,  D. Lefrancois,  
 S. Lehtola,  D. S. Levine,  Yi-Pei Li,  You-Sheng Lin,  Fenglai Liu,  
 Kuan-Yu Liu,  E. Livshits,  M. Loipersberger,  A. Luenser,  P. Manohar,  
 E. Mansoor,  S. F. Manzer,  Shan-Ping Mao,  Yuezhi Mao,  N. Mardirossian,  
 A. V. Marenich,  T. Markovich,  L. A. Martinez-Martinez,  S. A. Maurer,  
 N. J. Mayhall,  S. C. McKenzie,  J.-M. Mewes,  P. Morgante,  A. F. Morrison,  
 J. W. Mullinax,  K. Nanda,  T. S. Nguyen-Beck,  R. Olivares-Amaya,  
 K. J. Oosterbaan,  J. A. Parkhill,  S. K. Paul,  F. Pavosevic,  Zheng Pei,  
 T. M. Perrine,  F. Plasser,  P. Pokhilko,  S. Prager,  A. Prociuk,  
 E. Ramos,  B. Rana,  D. R. Rehn,  F. Rob,  M. Scheurer,  M. Schneider,  
 N. Sergueev,  S. M. Sharada,  S. Sharma,  D. W. Small,  T. Stauch,  
 C. J. Stein,  T. Stein,  Yu-Chuan Su,  S. P. Veccham,  Zhen Tao,  
 A. J. W. Thom,  A. Tkatchenko,  T. Tsuchimochi,  N. M. Tubman,  L. Vogt,  
 M. L. Vidal,  O. Vydrov,  M. A. Watson,  J. Wenzel,  M. de Wergifosse,  
 T. A. Wesolowski,  A. White,  J. Witte,  A. Yamada,  Jun Yang,  K. Yao,  
 S. Yeganeh,  S. R. Yost,  Zhi-Qiang You,  A. Zech,  Igor Ying Zhang,  
 Xing Zhang,  Yan Zhao,  Ying Zhu,  B. R. Brooks,  G. K. L. Chan,  
 C. J. Cramer,  M. S. Gordon,  W. J. Hehre,  A. Klamt,  M. W. Schmidt,  
 C. D. Sherrill,  D. G. Truhlar,  A. Aspuru-Guzik,  R. Baer,  A. T. Bell,  
 N. A. Besley,  Jeng-Da Chai,  A. E. DePrince, III,  R. A. DiStasio Jr.,  
 A. Dreuw,  B. D. Dunietz,  T. R. Furlani,  Chao-Ping Hsu,  Yousung Jung,  
 Jing Kong,  D. S. Lambrecht,  WanZhen Liang,  C. Ochsenfeld,  
 V. A. Rassolov,  L. V. Slipchenko,  J. E. Subotnik,  T. Van Voorhis,  
 J. M. Herbert,  A. I. Krylov,  P. M. W. Gill,  M. Head-Gordon

 Contributors to earlier versions of Q-Chem not listed above: 
 R. D. Adamson,  B. Austin,  J. Baker,  G. J. O. Beran,  K. Brandhorst,  
 S. T. Brown,  E. F. C. Byrd,  A. K. Chakraborty,  C.-L. Cheng,  
 Siu Hung Chien,  D. M. Chipman,  D. L. Crittenden,  H. Dachsel,  
 R. J. Doerksen,  A. D. Dutoi,  L. Fusti-Molnar,  W. A. Goddard III,  
 A. Golubeva-Zadorozhnaya,  S. R. Gwaltney,  G. Hawkins,  A. Heyden,  
 S. Hirata,  G. Kedziora,  F. J. Keil,  C. Kelley,  Jihan Kim,  R. A. King,  
 R. Z. Khaliullin,  P. P. Korambath,  W. Kurlancheek,  A. M. Lee,  M. S. Lee,  
 S. V. Levchenko,  Ching Yeh Lin,  D. Liotard,  R. C. Lochan,  I. Lotan,  
 P. E. Maslen,  N. Nair,  D. P. O'Neill,  D. Neuhauser,  E. Neuscamman,  
 C. M. Oana,  R. Olson,  B. Peters,  R. Peverati,  P. A. Pieniazek,  
 Y. M. Rhee,  J. Ritchie,  M. A. Rohrdanz,  E. Rosta,  N. J. Russ,  
 H. F. Schaefer III,  N. E. Schultz,  N. Shenvi,  A. C. Simmonett,  A. Sodt,  
 D. Stuck,  K. S. Thanthiriwatte,  V. Vanovschi,  Tao Wang,  A. Warshel,  
 C. F. Williams,  Q. Wu,  X. Xu,  W. Zhang

 Please cite Q-Chem as follows:
 Y. Shao et al., Mol. Phys. 113, 184-215 (2015)
 DOI: 10.1080/00268976.2014.952696

 Q-Chem 5.3.0 for Intel X86 EM64T Linux

 Parts of Q-Chem use Armadillo 9.800.1 (Horizon Scraper).
 http://arma.sourceforge.net/

 Q-Chem begins on Mon Jul 13 15:09:09 2020  

Host: centos77-c5
0

     Scratch files written to /tmp/29025.centos77-h1/qchem96594//
Processing $rem in /opt/qchem-5.3.0-intel2020u1//config/preferences:
Processing $rem in /home/shihchengli/.qchemrc:

Checking the input file for inconsistencies... 	...done.

--------------------------------------------------------------
User input:
--------------------------------------------------------------
$rem
   JOBTYPE  sp
   EXCHANGE   omegaB97X-D
   BASIS   6-311+G(2df,2pd)
   UNRESTRICTED   True
   max_scf_cycles   250
   geom_opt_max_cycles   1500
   basis2 6-31G*
   scf_algorithm rca_diis
   SYM_IGNORE  TRUE
   print_input   true
   geom_opt_dmax   80
   pop_mulliken false
   XC_GRID 000075000302
$end

$molecule
0 3
N       0.9310776384     1.1248805161     2.6047171416
O       0.7566931089     1.8942694645     3.4960613352
O       1.0850055754     1.2800247188     1.4416798176
N       -0.5575584001     -0.6871303464     3.5746069704
O       -1.2168939730     -1.3236021595     2.8498134176
O       0.9466671805     -0.1934530836     3.1334212076
$end
--------------------------------------------------------------
 ----------------------------------------------------------------
             Standard Nuclear Orientation (Angstroms)
    I     Atom           X                Y                Z
 ----------------------------------------------------------------
    1      N       0.9310776384     1.1248805161     2.6047171416
    2      O       0.7566931089     1.8942694645     3.4960613352
    3      O       1.0850055754     1.2800247188     1.4416798176
    4      N      -0.5575584001    -0.6871303464     3.5746069704
    5      O      -1.2168939730    -1.3236021595     2.8498134176
    6      O       0.9466671805    -0.1934530836     3.1334212076
 ----------------------------------------------------------------
 Nuclear Repulsion Energy =         230.85261447 hartrees
 There are       24 alpha and       22 beta electrons
 Requested basis set is 6-311+G(2df,2pd)
 There are 48 shells and 204 basis functions

 Total QAlloc Memory Limit   2000 MB
 Mega-Array Size       188 MB
 MEM_STATIC part       192 MB

                       Distance Matrix (Angstroms)
             N (  1)   O (  2)   O (  3)   N (  4)   O (  5)
   O (  2)  1.190321
   O (  3)  1.183393  2.169232
   N (  4)  2.537737  2.897767  3.334231
   O (  5)  3.266332  3.829802  3.749727  1.168394
   O (  6)  1.420484  2.127483  2.247724  1.643489  2.457370
 
 A cutoff of  1.0D-09 yielded   1019 shell pairs
 There are     18992 function pairs (     24879 Cartesian)
 Smallest overlap matrix eigenvalue = 4.20E-04

 Scale SEOQF with 1.000000e-01/1.000000e-01/1.000000e-01

 Standard Electronic Orientation quadrupole field applied
 Nucleus-field energy     =    -0.0000000360 hartrees
 Requested basis set is 6-31G(d)
 There are 24 shells and 84 basis functions
 A cutoff of  1.0D-09 yielded    263 shell pairs
 There are      3469 function pairs (      3988 Cartesian)
 Smallest overlap matrix eigenvalue = 5.07E-03
 Guess from superposition of atomic densities
 Warning:  Energy on first SCF cycle will be non-variational
 SAD guess density has 46.000000 electrons
 Long-range K will be added via erf
 Coulomb attenuation parameter = 0.2 bohr**(-1)
 An unrestricted hybrid HF-DFT SCF calculation will be
 performed using Relaxed Constraint Minimization + Pulay DIIS
 Exchange:     0.2220 Hartree-Fock + 1.0000 wB97X-D + LR-HF
 Correlation:  1.0000 wB97X-D
 Using Euler-Maclaurin-Lebedev (75,302) quadrature formula
 Dispersion:   Grimme D
 SCF converges when DIIS error is below 1.0E-04
 using 6 threads for integral computing
 -------------------------------------------------------
 OpenMP Integral computing Module                
 Release: version 1.0, May 2013, Q-Chem Inc. Pittsburgh 
 -------------------------------------------------------
 using 6 threads for integral computing
 -------------------------------------------------------
 OpenMP Integral computing Module                
 Release: version 1.0, May 2013, Q-Chem Inc. Pittsburgh 
 -------------------------------------------------------
 ---------------------------------------
  Cycle       Energy         DIIS Error
 ---------------------------------------
    1    -411.0296936340      8.84E-02
    2    -409.6360261704      1.97E-02
    3    -409.7442934788      4.26E-03
    4    -409.8977027068      4.50E-03
    5    -409.9034798524      6.11E-04 Done RCA. Switching to DIIS
    6    -409.9113853277      4.63E-04
    7    -409.9118031909      1.33E-04
    8    -409.9119002094      8.05E-05 Convergence criterion met
 ---------------------------------------
 <S^2> = 2.0174
 SCF time:  CPU 14.49 s  wall 2.43 s
 SCF   energy in the small basis set = -409.91190021
 Total energy in the small basis set = -409.91190021
 ----------------------------------------------------
  Cycle       Energy    
 ----------------------------------------------------
    1     -41.7614698640     -4.18E+01
 Long-range K will be added via erf
 Coulomb attenuation parameter = 0.2 bohr**(-1)
 An unrestricted hybrid HF-DFT SCF calculation will be
 performed using Relaxed Constraint Minimization + Pulay DIIS
 Exchange:     0.2220 Hartree-Fock + 1.0000 wB97X-D + LR-HF
 Correlation:  1.0000 wB97X-D
 Using Euler-Maclaurin-Lebedev (75,302) quadrature formula
 Dispersion:   Grimme D
 SCF converges when DIIS error is below 1.0E-05
 Basis2 calculation detected. Using small basis as guess for larger.
 SCFMinFind is unable to tell whether the solution found is close.
 Resetting ReadMinima to 0 and attempting to follow guess.
 SCFMinFind following SCF Guess.
 using 6 threads for integral computing
 -------------------------------------------------------
 OpenMP Integral computing Module                
 Release: version 1.0, May 2013, Q-Chem Inc. Pittsburgh 
 -------------------------------------------------------
 using 6 threads for integral computing
 -------------------------------------------------------
 OpenMP Integral computing Module                
 Release: version 1.0, May 2013, Q-Chem Inc. Pittsburgh 
 -------------------------------------------------------
 ---------------------------------------
  Cycle       Energy         DIIS Error
 ---------------------------------------
    1    -409.9736083129      8.20E-03
    2    -409.9798784368      4.94E-03
    3    -410.0117915567      1.19E-03
    4    -410.0579802936      1.17E-03
    5    -410.0607206140      1.87E-04 Done RCA. Switching to DIIS
    6    -410.0650198137      1.89E-04
    7    -410.0658431164      7.63E-05
    8    -410.0666850633      5.98E-05
    9    -410.0671031690      5.23E-05
   10    -410.0673209288      3.64E-05
   11    -410.0676259373      1.88E-05
   12    -410.0677083951      7.22E-06 Convergence criterion met
 ---------------------------------------
 <S^2> = 2.0194
 SCF time:  CPU 76.78 s  wall 12.83 s
 SCF   energy in the final basis set = -410.06770840
 Total energy in the final basis set = -410.06770840
 
 --------------------------------------------------------------
 
                    Orbital Energies (a.u.)
 --------------------------------------------------------------
 
 Alpha MOs
 -- Occupied --
-19.4058 -19.3994 -19.3574 -19.3399 -14.7701 -14.6251  -1.4437  -1.3701
 -1.2598  -1.2052  -0.8763  -0.7775  -0.7269  -0.7143  -0.6768  -0.6525
 -0.6352  -0.6318  -0.5209  -0.4862  -0.4653  -0.4586  -0.4332  -0.3423
 -- Virtual --
 -0.0413   0.0153   0.0823   0.1176   0.1260   0.1317   0.1407   0.1733
  0.1770   0.1825   0.2298   0.2365   0.2513   0.2678   0.2795   0.2868
  0.2927   0.3274   0.3391   0.3535   0.3563   0.3695   0.3785   0.3919
  0.4022   0.4258   0.4470   0.4527   0.4983   0.5240   0.7149   0.7779
  0.7982   0.8309   0.8567   0.8620   0.9112   0.9325   0.9790   1.0013
  1.0193   1.0393   1.0548   1.0792   1.0932   1.1010   1.1168   1.1337
  1.1469   1.1485   1.1910   1.1986   1.2230   1.2453   1.3018   1.3297
  1.3966   1.4357   1.5136   1.5377   1.5460   1.5693   1.6070   1.6203
  1.6487   1.6767   1.7135   1.7915   1.8153   1.9098   1.9218   1.9488
  2.0138   2.1414   2.1877   2.2534   2.2864   2.3866   2.4379   2.5151
  2.5244   2.5379   2.6795   2.7868   3.4242   3.5361   3.5386   3.5972
  3.6616   3.6812   3.7093   3.7173   3.7602   3.7895   3.8786   3.9063
  3.9307   3.9928   4.0103   4.0491   4.0687   4.4179   4.4531   4.4959
  4.5019   4.5869   4.6222   4.6783   4.6915   4.7114   4.7199   4.7649
  4.8545   4.8780   5.0009   5.0031   5.0161   5.0290   5.0403   5.0434
  5.0738   5.0800   5.0970   5.1111   5.1294   5.1368   5.1618   5.1880
  5.2057   5.2423   5.2787   5.3544   5.4111   5.4254   5.4782   5.4955
  5.5435   5.5840   5.6219   5.7094   5.7945   5.9365   5.9866   6.1123
  6.3139   6.5333   6.6374   6.6540   6.7059   6.7285   6.7464   6.7693
  6.8077   6.8184   6.8449   6.9052   6.9720   7.0552   7.0684   7.1217
  7.1474   7.1813   7.1864   7.2658   7.3157   7.3958   7.4434   7.5507
  7.6001   7.6965   7.7942   7.8524   7.9359   8.2836  35.9092  36.1259
 49.9700  50.1635  50.2385  50.2528
 
 Beta MOs
 -- Occupied --
-19.3917 -19.3824 -19.3561 -19.3398 -14.7702 -14.6068  -1.4393  -1.3331
 -1.2567  -1.1702  -0.8333  -0.7486  -0.7126  -0.7023  -0.6724  -0.5964
 -0.5858  -0.5633  -0.4976  -0.4693  -0.4595  -0.4240
 -- Virtual --
 -0.1597  -0.0302  -0.0091   0.0536   0.0935   0.1237   0.1334   0.1403
  0.1467   0.1759   0.1819   0.1860   0.2317   0.2392   0.2533   0.2718
  0.2813   0.2907   0.2976   0.3299   0.3407   0.3558   0.3575   0.3714
  0.3815   0.4034   0.4055   0.4288   0.4538   0.4574   0.5116   0.5284
  0.7290   0.7873   0.8102   0.8422   0.8691   0.8733   0.9226   0.9370
  0.9881   1.0101   1.0295   1.0558   1.0716   1.0834   1.1089   1.1106
  1.1223   1.1416   1.1549   1.1627   1.2008   1.2116   1.2391   1.2577
  1.3176   1.3438   1.4018   1.4479   1.5258   1.5474   1.5533   1.5814
  1.6283   1.6295   1.6589   1.6963   1.7287   1.7953   1.8253   1.9189
  1.9373   1.9574   2.0258   2.1626   2.1993   2.2671   2.2957   2.3959
  2.4555   2.5258   2.5308   2.5432   2.6850   2.7891   3.4411   3.5726
  3.5734   3.6076   3.6828   3.6944   3.7108   3.7294   3.7965   3.8461
  3.8905   3.9243   3.9489   4.0096   4.0217   4.0632   4.0825   4.4194
  4.4598   4.5020   4.5047   4.6111   4.6299   4.7061   4.7228   4.7356
  4.7559   4.8061   4.8879   4.9295   5.0190   5.0265   5.0419   5.0480
  5.0535   5.0549   5.0850   5.0877   5.1220   5.1303   5.1507   5.1546
  5.1909   5.2031   5.2306   5.2636   5.3049   5.3617   5.4274   5.4394
  5.4874   5.5162   5.5602   5.6068   5.6415   5.7271   5.7984   5.9512
  6.0024   6.1460   6.3209   6.5359   6.6584   6.6992   6.7338   6.7730
  6.7874   6.8024   6.8118   6.8232   6.8532   6.9080   7.0042   7.0763
  7.0840   7.1440   7.1793   7.2016   7.2119   7.2709   7.3243   7.4070
  7.4664   7.5618   7.6304   7.7243   7.7973   7.8579   7.9561   8.2846
 35.9313  36.1258  49.9850  50.1793  50.2395  50.2536
 --------------------------------------------------------------
 
 -----------------------------------------------------------------
                    Cartesian Multipole Moments
 -----------------------------------------------------------------
    Charge (ESU x 10^10)
                -0.0000
    Dipole Moment (Debye)
         X      -0.1920      Y      -0.7029      Z       0.1981
       Tot       0.7551
    Quadrupole Moments (Debye-Ang)
        XX     -30.7158     XY      -0.5343     YY     -34.4762
        XZ      -0.7187     YZ      -2.6314     ZZ     -32.4824
    Octopole Moments (Debye-Ang^2)
       XXX     -27.7129    XXY      -9.4307    XYY     -11.6878
       YYY     -40.3503    XXZ     -86.6712    XYZ      -0.6057
       YYZ     -98.8261    XZZ     -16.1587    YZZ     -23.7113
       ZZZ    -280.7653
    Hexadecapole Moments (Debye-Ang^3)
      XXXX    -182.3185   XXXY     -85.0477   XXYY     -82.0635
      XYYY     -95.3029   YYYY    -318.0841   XXXZ     -57.9713
      XXYZ     -19.4618   XYYZ     -26.0275   YYYZ     -94.9635
      XXZZ    -298.5655   XYZZ     -31.0604   YYZZ    -356.9607
      XZZZ    -101.3043   YZZZ    -130.5917   ZZZZ   -1724.0683
 -----------------------------------------------------------------
Archival summary:
1\1\centos77-c5\SP\ProcedureUnspecified\BasisUnspecified\42(3)\shihchen\MonJul1315:09:262020MonJul1315:09:262020\0\\#,ProcedureUnspecified,BasisUnspecified,\\0,3\N\O,1,1.18339\O,1,1.19032,2,132.087\O,1,1.42048,2,119.081,3,-179.712,0\N,4,1.64349,1,111.633,2,-107.411,0\O,5,1.16839,4,120.904,1,95.6949,0\\\@

 Total job time:  17.62s(wall), 95.60s(cpu) 
 Mon Jul 13 15:09:26 2020

        *************************************************************
        *                                                           *
        *  Thank you very much for using Q-Chem.  Have a nice day.  *
        *                                                           *
        *************************************************************


