                  Welcome to Q-Chem
     A Quantum Leap Into The Future Of Chemistry


 Q-Chem 5.3 (devel), Q-Chem, Inc., Pleasanton, CA (2020)

 Yihan Shao,  Zhengting Gan,  E. Epifanovsky,  A. T. B. Gilbert,  M. Wormit,  
 J. Kussmann,  A. W. Lange,  A. Behn,  Jia Deng,  Xintian Feng,  D. Ghosh,  
 M. Goldey,  P. R. Horn,  L. D. Jacobson,  I. Kaliman,  T. Kus,  A. Landau,  
 Jie Liu,  E. I. Proynov,  R. M. Richard,  R. P. Steele,  E. J. Sundstrom,  
 H. L. Woodcock III,  P. M. Zimmerman,  D. Zuev,  B. Alam,  B. Albrecht,  
 E. Alguire,  S. A. Baeppler,  D. Barton,  Z. Benda,  Y. A. Bernard,  
 E. J. Berquist,  K. B. Bravaya,  H. Burton,  K. Carter-Fenk,  D. Casanova,  
 Chun-Min Chang,  Yunqing Chen,  A. Chien,  K. D. Closser,  M. P. Coons,  
 S. Coriani,  S. Dasgupta,  A. L. Dempwolff,  M. Diedenhofen,  Hainam Do,  
 R. G. Edgar,  Po-Tung Fang,  S. Faraji,  S. Fatehi,  Qingguo Feng,  
 J. Fosso-Tande,  J. Gayvert,  Qinghui Ge,  A. Ghysels,  G. Gidofalvi,  
 J. Gomes,  J. Gonthier,  A. Gunina,  D. Hait,  M. W. D. Hanson-Heine,  
 P. H. P. Harbach,  A. W. Hauser,  M. F. Herbst,  J. E. Herr,  
 E. G. Hohenstein,  Z. C. Holden,  Kerwin Hui,  B. C. Huynh,  T.-C. Jagau,  
 Hyunjun Ji,  B. Kaduk,  K. Khistyaev,  Jaehoon Kim,  P. Klunzinger,  K. Koh,  
 D. Kosenkov,  L. Koulias,  T. Kowalczyk,  C. M. Krauter,  A. Kunitsa,  
 Ka Un Lao,  A. Laurent,  K. V. Lawler,  Joonho Lee,  D. Lefrancois,  
 S. Lehtola,  D. S. Levine,  Yi-Pei Li,  You-Sheng Lin,  Fenglai Liu,  
 Kuan-Yu Liu,  E. Livshits,  M. Loipersberger,  A. Luenser,  P. Manohar,  
 E. Mansoor,  S. F. Manzer,  Shan-Ping Mao,  Yuezhi Mao,  N. Mardirossian,  
 A. V. Marenich,  T. Markovich,  L. A. Martinez-Martinez,  S. A. Maurer,  
 N. J. Mayhall,  S. C. McKenzie,  J.-M. Mewes,  P. Morgante,  A. F. Morrison,  
 J. W. Mullinax,  K. Nanda,  T. S. Nguyen-Beck,  R. Olivares-Amaya,  
 K. J. Oosterbaan,  J. A. Parkhill,  S. K. Paul,  F. Pavosevic,  Zheng Pei,  
 T. M. Perrine,  F. Plasser,  P. Pokhilko,  S. Prager,  A. Prociuk,  
 E. Ramos,  B. Rana,  D. R. Rehn,  F. Rob,  M. Scheurer,  M. Schneider,  
 N. Sergueev,  S. M. Sharada,  S. Sharma,  D. W. Small,  T. Stauch,  
 C. J. Stein,  T. Stein,  Yu-Chuan Su,  S. P. Veccham,  Zhen Tao,  
 A. J. W. Thom,  A. Tkatchenko,  T. Tsuchimochi,  N. M. Tubman,  L. Vogt,  
 M. L. Vidal,  O. Vydrov,  M. A. Watson,  J. Wenzel,  M. de Wergifosse,  
 T. A. Wesolowski,  A. White,  J. Witte,  A. Yamada,  Jun Yang,  K. Yao,  
 S. Yeganeh,  S. R. Yost,  Zhi-Qiang You,  A. Zech,  Igor Ying Zhang,  
 Xing Zhang,  Yan Zhao,  Ying Zhu,  B. R. Brooks,  G. K. L. Chan,  
 C. J. Cramer,  M. S. Gordon,  W. J. Hehre,  A. Klamt,  M. W. Schmidt,  
 C. D. Sherrill,  D. G. Truhlar,  A. Aspuru-Guzik,  R. Baer,  A. T. Bell,  
 N. A. Besley,  Jeng-Da Chai,  A. E. DePrince, III,  R. A. DiStasio Jr.,  
 A. Dreuw,  B. D. Dunietz,  T. R. Furlani,  Chao-Ping Hsu,  Yousung Jung,  
 Jing Kong,  D. S. Lambrecht,  WanZhen Liang,  C. Ochsenfeld,  
 V. A. Rassolov,  L. V. Slipchenko,  J. E. Subotnik,  T. Van Voorhis,  
 J. M. Herbert,  A. I. Krylov,  P. M. W. Gill,  M. Head-Gordon

 Contributors to earlier versions of Q-Chem not listed above: 
 R. D. Adamson,  B. Austin,  J. Baker,  G. J. O. Beran,  K. Brandhorst,  
 S. T. Brown,  E. F. C. Byrd,  A. K. Chakraborty,  C.-L. Cheng,  
 Siu Hung Chien,  D. M. Chipman,  D. L. Crittenden,  H. Dachsel,  
 R. J. Doerksen,  A. D. Dutoi,  L. Fusti-Molnar,  W. A. Goddard III,  
 A. Golubeva-Zadorozhnaya,  S. R. Gwaltney,  G. Hawkins,  A. Heyden,  
 S. Hirata,  G. Kedziora,  F. J. Keil,  C. Kelley,  Jihan Kim,  R. A. King,  
 R. Z. Khaliullin,  P. P. Korambath,  W. Kurlancheek,  A. M. Lee,  M. S. Lee,  
 S. V. Levchenko,  Ching Yeh Lin,  D. Liotard,  R. C. Lochan,  I. Lotan,  
 P. E. Maslen,  N. Nair,  D. P. O'Neill,  D. Neuhauser,  E. Neuscamman,  
 C. M. Oana,  R. Olson,  B. Peters,  R. Peverati,  P. A. Pieniazek,  
 Y. M. Rhee,  J. Ritchie,  M. A. Rohrdanz,  E. Rosta,  N. J. Russ,  
 H. F. Schaefer III,  N. E. Schultz,  N. Shenvi,  A. C. Simmonett,  A. Sodt,  
 D. Stuck,  K. S. Thanthiriwatte,  V. Vanovschi,  Tao Wang,  A. Warshel,  
 C. F. Williams,  Q. Wu,  X. Xu,  W. Zhang

 Please cite Q-Chem as follows:
 Y. Shao et al., Mol. Phys. 113, 184-215 (2015)
 DOI: 10.1080/00268976.2014.952696

 Q-Chem 5.3.0 for Intel X86 EM64T Linux

 Parts of Q-Chem use Armadillo 9.800.1 (Horizon Scraper).
 http://arma.sourceforge.net/

 Q-Chem begins on Mon Jul 13 15:18:55 2020  

Host: centos77-c5
0

     Scratch files written to /tmp/29025.centos77-h1/qchem14720//
Processing $rem in /opt/qchem-5.3.0-intel2020u1//config/preferences:
Processing $rem in /home/shihchengli/.qchemrc:

Checking the input file for inconsistencies... 	...done.

--------------------------------------------------------------
User input:
--------------------------------------------------------------
$rem
   JOBTYPE  sp
   EXCHANGE   omegaB97X-D
   BASIS   6-311+G(2df,2pd)
   UNRESTRICTED   True
   max_scf_cycles   250
   geom_opt_max_cycles   1500
   basis2 6-31G*
   scf_algorithm rca_diis
   SYM_IGNORE  TRUE
   print_input   true
   geom_opt_dmax   80
   pop_mulliken false
   XC_GRID 000075000302
$end

$molecule
0 3
N       0.6677169190     1.0869754141     2.4317125467
O       0.5800909202     2.0979693298     1.8095576012
O       1.6019189363     0.4644956924     2.8061520447
N       -0.5982183523     -0.7354497553     3.6630862883
O       0.3327005117     -1.4414278393     3.6516637491
O       -0.6392178049     0.6224262682     2.7381276601
$end
--------------------------------------------------------------
 ----------------------------------------------------------------
             Standard Nuclear Orientation (Angstroms)
    I     Atom           X                Y                Z
 ----------------------------------------------------------------
    1      N       0.6677169190     1.0869754141     2.4317125467
    2      O       0.5800909202     2.0979693298     1.8095576012
    3      O       1.6019189363     0.4644956924     2.8061520447
    4      N      -0.5982183523    -0.7354497553     3.6630862883
    5      O       0.3327005117    -1.4414278393     3.6516637491
    6      O      -0.6392178049     0.6224262682     2.7381276601
 ----------------------------------------------------------------
 Nuclear Repulsion Energy =         237.07342721 hartrees
 There are       24 alpha and       22 beta electrons
 Requested basis set is 6-311+G(2df,2pd)
 There are 48 shells and 204 basis functions

 Total QAlloc Memory Limit   2000 MB
 Mega-Array Size       188 MB
 MEM_STATIC part       192 MB

                       Distance Matrix (Angstroms)
             N (  1)   O (  2)   O (  3)   N (  4)   O (  5)
   O (  2)  1.190321
   O (  3)  1.183393  2.169232
   N (  4)  2.537737  3.585003  2.648549
   O (  5)  2.827250  3.997736  2.440973  1.168394
   O (  6)  1.420484  2.127483  2.247724  1.643489  2.457370
 
 A cutoff of  1.0D-09 yielded   1047 shell pairs
 There are     19586 function pairs (     25791 Cartesian)
 Smallest overlap matrix eigenvalue = 5.03E-04

 Scale SEOQF with 1.000000e-01/1.000000e-01/1.000000e-01

 Standard Electronic Orientation quadrupole field applied
 Nucleus-field energy     =    -0.0000000358 hartrees
 Requested basis set is 6-31G(d)
 There are 24 shells and 84 basis functions
 A cutoff of  1.0D-09 yielded    275 shell pairs
 There are      3566 function pairs (      4098 Cartesian)
 Smallest overlap matrix eigenvalue = 4.70E-03
 Guess from superposition of atomic densities
 Warning:  Energy on first SCF cycle will be non-variational
 SAD guess density has 46.000000 electrons
 Long-range K will be added via erf
 Coulomb attenuation parameter = 0.2 bohr**(-1)
 An unrestricted hybrid HF-DFT SCF calculation will be
 performed using Relaxed Constraint Minimization + Pulay DIIS
 Exchange:     0.2220 Hartree-Fock + 1.0000 wB97X-D + LR-HF
 Correlation:  1.0000 wB97X-D
 Using Euler-Maclaurin-Lebedev (75,302) quadrature formula
 Dispersion:   Grimme D
 SCF converges when DIIS error is below 1.0E-04
 using 6 threads for integral computing
 -------------------------------------------------------
 OpenMP Integral computing Module                
 Release: version 1.0, May 2013, Q-Chem Inc. Pittsburgh 
 -------------------------------------------------------
 using 6 threads for integral computing
 -------------------------------------------------------
 OpenMP Integral computing Module                
 Release: version 1.0, May 2013, Q-Chem Inc. Pittsburgh 
 -------------------------------------------------------
 ---------------------------------------
  Cycle       Energy         DIIS Error
 ---------------------------------------
    1    -411.0435117081      8.85E-02
    2    -409.6492289940      1.95E-02
    3    -409.7534916740      4.45E-03
    4    -409.9022688080      4.67E-03
    5    -409.9085602392      6.60E-04 Done RCA. Switching to DIIS
    6    -409.9171727524      5.82E-04
    7    -409.9176729511      2.03E-04
    8    -409.9178116506      8.10E-05 Convergence criterion met
 ---------------------------------------
 <S^2> = 2.0151
 SCF time:  CPU 14.98 s  wall 2.51 s
 SCF   energy in the small basis set = -409.91781165
 Total energy in the small basis set = -409.91781165
 ----------------------------------------------------
  Cycle       Energy    
 ----------------------------------------------------
    1     -41.7654004699     -4.18E+01
 Long-range K will be added via erf
 Coulomb attenuation parameter = 0.2 bohr**(-1)
 An unrestricted hybrid HF-DFT SCF calculation will be
 performed using Relaxed Constraint Minimization + Pulay DIIS
 Exchange:     0.2220 Hartree-Fock + 1.0000 wB97X-D + LR-HF
 Correlation:  1.0000 wB97X-D
 Using Euler-Maclaurin-Lebedev (75,302) quadrature formula
 Dispersion:   Grimme D
 SCF converges when DIIS error is below 1.0E-05
 Basis2 calculation detected. Using small basis as guess for larger.
 SCFMinFind is unable to tell whether the solution found is close.
 Resetting ReadMinima to 0 and attempting to follow guess.
 SCFMinFind following SCF Guess.
 using 6 threads for integral computing
 -------------------------------------------------------
 OpenMP Integral computing Module                
 Release: version 1.0, May 2013, Q-Chem Inc. Pittsburgh 
 -------------------------------------------------------
 using 6 threads for integral computing
 -------------------------------------------------------
 OpenMP Integral computing Module                
 Release: version 1.0, May 2013, Q-Chem Inc. Pittsburgh 
 -------------------------------------------------------
 ---------------------------------------
  Cycle       Energy         DIIS Error
 ---------------------------------------
    1    -410.0092940331      7.99E-03
    2    -410.0223020323      3.90E-03
    3    -410.0411621523      1.04E-03
    4    -410.0679605866      1.10E-03
    5    -410.0697250565      1.68E-04 Done RCA. Switching to DIIS
    6    -410.0722595006      1.69E-04
    7    -410.0724413325      5.24E-05
    8    -410.0725259673      2.44E-05
    9    -410.0725631303      1.31E-05
   10    -410.0725729585      6.50E-06 Convergence criterion met
 ---------------------------------------
 <S^2> = 2.0180
 SCF time:  CPU 67.65 s  wall 11.31 s
 SCF   energy in the final basis set = -410.07257296
 Total energy in the final basis set = -410.07257296
 
 --------------------------------------------------------------
 
                    Orbital Energies (a.u.)
 --------------------------------------------------------------
 
 Alpha MOs
 -- Occupied --
-19.4104 -19.4025 -19.3510 -19.3487 -14.7754 -14.6154  -1.4472  -1.3713
 -1.2623  -1.2065  -0.8753  -0.7793  -0.7208  -0.7136  -0.6860  -0.6606
 -0.6491  -0.6149  -0.5047  -0.5034  -0.4669  -0.4545  -0.4413  -0.3326
 -- Virtual --
 -0.0238   0.0128   0.0760   0.1070   0.1287   0.1362   0.1417   0.1690
  0.1762   0.1924   0.2237   0.2371   0.2426   0.2695   0.2829   0.2977
  0.3065   0.3217   0.3408   0.3493   0.3549   0.3579   0.3756   0.3965
  0.4262   0.4415   0.4419   0.4723   0.4880   0.5289   0.7423   0.7545
  0.7905   0.8266   0.8551   0.8847   0.9282   0.9427   0.9530   0.9987
  1.0060   1.0287   1.0553   1.0781   1.0830   1.1021   1.1139   1.1198
  1.1305   1.1553   1.1871   1.2054   1.2225   1.2412   1.2982   1.3380
  1.4563   1.5124   1.5196   1.5346   1.5587   1.5652   1.5777   1.6175
  1.6390   1.6998   1.7520   1.8018   1.8551   1.8674   1.9191   1.9773
  1.9865   2.1257   2.1888   2.2661   2.3367   2.3620   2.4129   2.4867
  2.5358   2.5718   2.7331   2.8214   3.5074   3.5310   3.5725   3.6037
  3.6299   3.6517   3.6785   3.7070   3.7544   3.7605   3.7954   3.8704
  3.9520   3.9809   4.0166   4.0820   4.1500   4.4280   4.4652   4.4880
  4.4951   4.6076   4.6513   4.6547   4.7071   4.7206   4.7293   4.7703
  4.8102   4.9374   4.9864   4.9973   5.0064   5.0234   5.0315   5.0390
  5.0745   5.0816   5.0959   5.1209   5.1276   5.1505   5.1739   5.1816
  5.2601   5.3103   5.3204   5.3550   5.4012   5.4440   5.4743   5.4871
  5.5433   5.5731   5.6186   5.6664   5.8096   5.8641   5.9836   6.1027
  6.3173   6.5323   6.6483   6.6569   6.7096   6.7275   6.7466   6.7697
  6.7990   6.8294   6.9063   6.9226   6.9443   6.9992   7.0977   7.1273
  7.1603   7.1656   7.2083   7.2698   7.3164   7.3572   7.4171   7.5694
  7.6569   7.7094   7.8253   7.8523   7.9151   8.2854  35.9208  36.1229
 49.9882  50.1678  50.2377  50.2630
 
 Beta MOs
 -- Occupied --
-19.3979 -19.3835 -19.3488 -19.3485 -14.7757 -14.5974  -1.4425  -1.3320
 -1.2588  -1.1750  -0.8299  -0.7516  -0.7178  -0.6977  -0.6731  -0.6136
 -0.5738  -0.5582  -0.4805  -0.4747  -0.4626  -0.4437
 -- Virtual --
 -0.1542  -0.0269   0.0081   0.0646   0.0864   0.1141   0.1337   0.1390
  0.1467   0.1704   0.1837   0.1975   0.2254   0.2384   0.2472   0.2724
  0.2843   0.2999   0.3127   0.3226   0.3426   0.3509   0.3572   0.3599
  0.3792   0.4022   0.4370   0.4435   0.4461   0.4765   0.5057   0.5364
  0.7546   0.7599   0.8179   0.8455   0.8620   0.8863   0.9367   0.9515
  0.9649   1.0081   1.0099   1.0438   1.0643   1.0890   1.0910   1.1114
  1.1252   1.1331   1.1373   1.1629   1.2019   1.2165   1.2346   1.2559
  1.3068   1.3589   1.4682   1.5262   1.5291   1.5420   1.5678   1.5805
  1.5891   1.6312   1.6551   1.7154   1.7632   1.8053   1.8663   1.8896
  1.9250   1.9886   2.0028   2.1456   2.1955   2.2805   2.3538   2.3697
  2.4229   2.5044   2.5379   2.5748   2.7436   2.8248   3.5337   3.5646
  3.5910   3.6205   3.6425   3.6541   3.6891   3.7273   3.7660   3.8131
  3.8341   3.8871   3.9758   4.0034   4.0207   4.0920   4.1632   4.4313
  4.4681   4.4913   4.4997   4.6401   4.6549   4.6862   4.7278   4.7561
  4.7628   4.8115   4.8467   4.9809   5.0043   5.0188   5.0361   5.0385
  5.0415   5.0621   5.0839   5.0901   5.1183   5.1308   5.1643   5.1662
  5.1898   5.2053   5.2799   5.3343   5.3458   5.3724   5.4039   5.4562
  5.4919   5.5157   5.5559   5.5965   5.6452   5.6759   5.8161   5.8712
  5.9994   6.1382   6.3291   6.5345   6.6709   6.6968   6.7517   6.7591
  6.7865   6.7889   6.8185   6.8414   6.9083   6.9485   6.9746   7.0137
  7.1177   7.1462   7.1673   7.1975   7.2377   7.2751   7.3310   7.3766
  7.4405   7.5779   7.6865   7.7346   7.8390   7.8677   7.9243   8.2880
 35.9422  36.1228  50.0014  50.1856  50.2401  50.2633
 --------------------------------------------------------------
 
 -----------------------------------------------------------------
                    Cartesian Multipole Moments
 -----------------------------------------------------------------
    Charge (ESU x 10^10)
                -0.0000
    Dipole Moment (Debye)
         X      -0.4611      Y      -0.6073      Z       0.4029
       Tot       0.8624
    Quadrupole Moments (Debye-Ang)
        XX     -33.8680     XY       0.4303     YY     -33.5792
        XZ      -1.6244     YZ      -0.2808     ZZ     -28.9678
    Octopole Moments (Debye-Ang^2)
       XXX     -33.8809    XXY     -12.7267    XYY     -11.1872
       YYY     -38.7664    XXZ     -96.0525    XYZ       2.7707
       YYZ     -91.1095    XZZ     -15.5195    YZZ      -9.7676
       ZZZ    -257.0710
    Hexadecapole Moments (Debye-Ang^3)
      XXXX    -165.1805   XXXY     -38.7910   XXYY     -77.8811
      XYYY     -36.8746   YYYY    -313.2508   XXXZ     -78.3416
      XXYZ     -11.9521   XYYZ     -24.1733   YYYZ     -32.0237
      XXZZ    -316.4034   XYZZ       0.4468   YYZZ    -316.9017
      XZZZ     -86.6569   YZZZ     -20.0461   ZZZZ   -1586.1651
 -----------------------------------------------------------------
Archival summary:
1\1\centos77-c5\SP\ProcedureUnspecified\BasisUnspecified\42(3)\shihchen\MonJul1315:19:112020MonJul1315:19:112020\0\\#,ProcedureUnspecified,BasisUnspecified,\\0,3\N\O,1,1.18339\O,1,1.19032,2,132.087\O,1,1.42048,2,119.081,3,-179.712,0\N,4,1.64349,1,111.633,2,2.58945,0\O,5,1.16839,4,120.904,1,-24.3051,0\\\@

 Total job time:  16.30s(wall), 86.90s(cpu) 
 Mon Jul 13 15:19:11 2020

        *************************************************************
        *                                                           *
        *  Thank you very much for using Q-Chem.  Have a nice day.  *
        *                                                           *
        *************************************************************


