                  Welcome to Q-Chem
     A Quantum Leap Into The Future Of Chemistry


 Q-Chem 5.3 (devel), Q-Chem, Inc., Pleasanton, CA (2020)

 Yihan Shao,  Zhengting Gan,  E. Epifanovsky,  A. T. B. Gilbert,  M. Wormit,  
 J. Kussmann,  A. W. Lange,  A. Behn,  Jia Deng,  Xintian Feng,  D. Ghosh,  
 M. Goldey,  P. R. Horn,  L. D. Jacobson,  I. Kaliman,  T. Kus,  A. Landau,  
 Jie Liu,  E. I. Proynov,  R. M. Richard,  R. P. Steele,  E. J. Sundstrom,  
 H. L. Woodcock III,  P. M. Zimmerman,  D. Zuev,  B. Alam,  B. Albrecht,  
 E. Alguire,  S. A. Baeppler,  D. Barton,  Z. Benda,  Y. A. Bernard,  
 E. J. Berquist,  K. B. Bravaya,  H. Burton,  K. Carter-Fenk,  D. Casanova,  
 Chun-Min Chang,  Yunqing Chen,  A. Chien,  K. D. Closser,  M. P. Coons,  
 S. Coriani,  S. Dasgupta,  A. L. Dempwolff,  M. Diedenhofen,  Hainam Do,  
 R. G. Edgar,  Po-Tung Fang,  S. Faraji,  S. Fatehi,  Qingguo Feng,  
 J. Fosso-Tande,  J. Gayvert,  Qinghui Ge,  A. Ghysels,  G. Gidofalvi,  
 J. Gomes,  J. Gonthier,  A. Gunina,  D. Hait,  M. W. D. Hanson-Heine,  
 P. H. P. Harbach,  A. W. Hauser,  M. F. Herbst,  J. E. Herr,  
 E. G. Hohenstein,  Z. C. Holden,  Kerwin Hui,  B. C. Huynh,  T.-C. Jagau,  
 Hyunjun Ji,  B. Kaduk,  K. Khistyaev,  Jaehoon Kim,  P. Klunzinger,  K. Koh,  
 D. Kosenkov,  L. Koulias,  T. Kowalczyk,  C. M. Krauter,  A. Kunitsa,  
 Ka Un Lao,  A. Laurent,  K. V. Lawler,  Joonho Lee,  D. Lefrancois,  
 S. Lehtola,  D. S. Levine,  Yi-Pei Li,  You-Sheng Lin,  Fenglai Liu,  
 Kuan-Yu Liu,  E. Livshits,  M. Loipersberger,  A. Luenser,  P. Manohar,  
 E. Mansoor,  S. F. Manzer,  Shan-Ping Mao,  Yuezhi Mao,  N. Mardirossian,  
 A. V. Marenich,  T. Markovich,  L. A. Martinez-Martinez,  S. A. Maurer,  
 N. J. Mayhall,  S. C. McKenzie,  J.-M. Mewes,  P. Morgante,  A. F. Morrison,  
 J. W. Mullinax,  K. Nanda,  T. S. Nguyen-Beck,  R. Olivares-Amaya,  
 K. J. Oosterbaan,  J. A. Parkhill,  S. K. Paul,  F. Pavosevic,  Zheng Pei,  
 T. M. Perrine,  F. Plasser,  P. Pokhilko,  S. Prager,  A. Prociuk,  
 E. Ramos,  B. Rana,  D. R. Rehn,  F. Rob,  M. Scheurer,  M. Schneider,  
 N. Sergueev,  S. M. Sharada,  S. Sharma,  D. W. Small,  T. Stauch,  
 C. J. Stein,  T. Stein,  Yu-Chuan Su,  S. P. Veccham,  Zhen Tao,  
 A. J. W. Thom,  A. Tkatchenko,  T. Tsuchimochi,  N. M. Tubman,  L. Vogt,  
 M. L. Vidal,  O. Vydrov,  M. A. Watson,  J. Wenzel,  M. de Wergifosse,  
 T. A. Wesolowski,  A. White,  J. Witte,  A. Yamada,  Jun Yang,  K. Yao,  
 S. Yeganeh,  S. R. Yost,  Zhi-Qiang You,  A. Zech,  Igor Ying Zhang,  
 Xing Zhang,  Yan Zhao,  Ying Zhu,  B. R. Brooks,  G. K. L. Chan,  
 C. J. Cramer,  M. S. Gordon,  W. J. Hehre,  A. Klamt,  M. W. Schmidt,  
 C. D. Sherrill,  D. G. Truhlar,  A. Aspuru-Guzik,  R. Baer,  A. T. Bell,  
 N. A. Besley,  Jeng-Da Chai,  A. E. DePrince, III,  R. A. DiStasio Jr.,  
 A. Dreuw,  B. D. Dunietz,  T. R. Furlani,  Chao-Ping Hsu,  Yousung Jung,  
 Jing Kong,  D. S. Lambrecht,  WanZhen Liang,  C. Ochsenfeld,  
 V. A. Rassolov,  L. V. Slipchenko,  J. E. Subotnik,  T. Van Voorhis,  
 J. M. Herbert,  A. I. Krylov,  P. M. W. Gill,  M. Head-Gordon

 Contributors to earlier versions of Q-Chem not listed above: 
 R. D. Adamson,  B. Austin,  J. Baker,  G. J. O. Beran,  K. Brandhorst,  
 S. T. Brown,  E. F. C. Byrd,  A. K. Chakraborty,  C.-L. Cheng,  
 Siu Hung Chien,  D. M. Chipman,  D. L. Crittenden,  H. Dachsel,  
 R. J. Doerksen,  A. D. Dutoi,  L. Fusti-Molnar,  W. A. Goddard III,  
 A. Golubeva-Zadorozhnaya,  S. R. Gwaltney,  G. Hawkins,  A. Heyden,  
 S. Hirata,  G. Kedziora,  F. J. Keil,  C. Kelley,  Jihan Kim,  R. A. King,  
 R. Z. Khaliullin,  P. P. Korambath,  W. Kurlancheek,  A. M. Lee,  M. S. Lee,  
 S. V. Levchenko,  Ching Yeh Lin,  D. Liotard,  R. C. Lochan,  I. Lotan,  
 P. E. Maslen,  N. Nair,  D. P. O'Neill,  D. Neuhauser,  E. Neuscamman,  
 C. M. Oana,  R. Olson,  B. Peters,  R. Peverati,  P. A. Pieniazek,  
 Y. M. Rhee,  J. Ritchie,  M. A. Rohrdanz,  E. Rosta,  N. J. Russ,  
 H. F. Schaefer III,  N. E. Schultz,  N. Shenvi,  A. C. Simmonett,  A. Sodt,  
 D. Stuck,  K. S. Thanthiriwatte,  V. Vanovschi,  Tao Wang,  A. Warshel,  
 C. F. Williams,  Q. Wu,  X. Xu,  W. Zhang

 Please cite Q-Chem as follows:
 Y. Shao et al., Mol. Phys. 113, 184-215 (2015)
 DOI: 10.1080/00268976.2014.952696

 Q-Chem 5.3.0 for Intel X86 EM64T Linux

 Parts of Q-Chem use Armadillo 9.800.1 (Horizon Scraper).
 http://arma.sourceforge.net/

 Q-Chem begins on Mon Jul 13 15:11:22 2020  

Host: centos77-c5
0

     Scratch files written to /tmp/29025.centos77-h1/qchem6761//
Processing $rem in /opt/qchem-5.3.0-intel2020u1//config/preferences:
Processing $rem in /home/shihchengli/.qchemrc:

Checking the input file for inconsistencies... 	...done.

--------------------------------------------------------------
User input:
--------------------------------------------------------------
$rem
   JOBTYPE  sp
   EXCHANGE   omegaB97X-D
   BASIS   6-311+G(2df,2pd)
   UNRESTRICTED   True
   max_scf_cycles   250
   geom_opt_max_cycles   1500
   basis2 6-31G*
   scf_algorithm rca_diis
   SYM_IGNORE  TRUE
   print_input   true
   geom_opt_dmax   80
   pop_mulliken false
   XC_GRID 000075000302
$end

$molecule
0 3
N       0.9047064139     1.1603781620     2.7179665813
O       1.4837961514     2.0038077291     3.3263623660
O       0.5192049598     1.1119544746     1.6001727157
N       -0.7751147358     -0.6519284587     3.2957663027
O       -0.8741132031     -1.5759947607     2.5876376183
O       0.6865115439     0.0467719637     3.5723943061
$end
--------------------------------------------------------------
 ----------------------------------------------------------------
             Standard Nuclear Orientation (Angstroms)
    I     Atom           X                Y                Z
 ----------------------------------------------------------------
    1      N       0.9047064139     1.1603781620     2.7179665813
    2      O       1.4837961514     2.0038077291     3.3263623660
    3      O       0.5192049598     1.1119544746     1.6001727157
    4      N      -0.7751147358    -0.6519284587     3.2957663027
    5      O      -0.8741132031    -1.5759947607     2.5876376183
    6      O       0.6865115439     0.0467719637     3.5723943061
 ----------------------------------------------------------------
 Nuclear Repulsion Energy =         231.48954778 hartrees
 There are       24 alpha and       22 beta electrons
 Requested basis set is 6-311+G(2df,2pd)
 There are 48 shells and 204 basis functions

 Total QAlloc Memory Limit   2000 MB
 Mega-Array Size       188 MB
 MEM_STATIC part       192 MB

                       Distance Matrix (Angstroms)
             N (  1)   O (  2)   O (  3)   N (  4)   O (  5)
   O (  2)  1.190321
   O (  3)  1.183393  2.169232
   N (  4)  2.537737  3.486624  2.767957
   O (  5)  3.266332  4.349763  3.184571  1.168394
   O (  6)  1.420484  2.127483  2.247724  1.643489  2.457370
 
 A cutoff of  1.0D-09 yielded   1025 shell pairs
 There are     19162 function pairs (     25155 Cartesian)
 Smallest overlap matrix eigenvalue = 5.90E-04

 Scale SEOQF with 1.000000e-01/1.000000e-01/1.000000e-01

 Standard Electronic Orientation quadrupole field applied
 Nucleus-field energy     =    -0.0000000353 hartrees
 Requested basis set is 6-31G(d)
 There are 24 shells and 84 basis functions
 A cutoff of  1.0D-09 yielded    268 shell pairs
 There are      3534 function pairs (      4062 Cartesian)
 Smallest overlap matrix eigenvalue = 4.88E-03
 Guess from superposition of atomic densities
 Warning:  Energy on first SCF cycle will be non-variational
 SAD guess density has 46.000000 electrons
 Long-range K will be added via erf
 Coulomb attenuation parameter = 0.2 bohr**(-1)
 An unrestricted hybrid HF-DFT SCF calculation will be
 performed using Relaxed Constraint Minimization + Pulay DIIS
 Exchange:     0.2220 Hartree-Fock + 1.0000 wB97X-D + LR-HF
 Correlation:  1.0000 wB97X-D
 Using Euler-Maclaurin-Lebedev (75,302) quadrature formula
 Dispersion:   Grimme D
 SCF converges when DIIS error is below 1.0E-04
 using 6 threads for integral computing
 -------------------------------------------------------
 OpenMP Integral computing Module                
 Release: version 1.0, May 2013, Q-Chem Inc. Pittsburgh 
 -------------------------------------------------------
 using 6 threads for integral computing
 -------------------------------------------------------
 OpenMP Integral computing Module                
 Release: version 1.0, May 2013, Q-Chem Inc. Pittsburgh 
 -------------------------------------------------------
 ---------------------------------------
  Cycle       Energy         DIIS Error
 ---------------------------------------
    1    -411.0311413401      8.84E-02
    2    -409.6524395790      1.96E-02
    3    -409.7578807049      4.31E-03
    4    -409.9071703939      4.52E-03
    5    -409.9129464363      6.12E-04 Done RCA. Switching to DIIS
    6    -409.9206881105      5.03E-04
    7    -409.9210652393      9.46E-05 Convergence criterion met
 ---------------------------------------
 <S^2> = 2.0159
 SCF time:  CPU 13.12 s  wall 2.20 s
 SCF   energy in the small basis set = -409.92106524
 Total energy in the small basis set = -409.92106524
 ----------------------------------------------------
  Cycle       Energy    
 ----------------------------------------------------
    1     -41.7580291509     -4.18E+01
 Long-range K will be added via erf
 Coulomb attenuation parameter = 0.2 bohr**(-1)
 An unrestricted hybrid HF-DFT SCF calculation will be
 performed using Relaxed Constraint Minimization + Pulay DIIS
 Exchange:     0.2220 Hartree-Fock + 1.0000 wB97X-D + LR-HF
 Correlation:  1.0000 wB97X-D
 Using Euler-Maclaurin-Lebedev (75,302) quadrature formula
 Dispersion:   Grimme D
 SCF converges when DIIS error is below 1.0E-05
 Basis2 calculation detected. Using small basis as guess for larger.
 SCFMinFind is unable to tell whether the solution found is close.
 Resetting ReadMinima to 0 and attempting to follow guess.
 SCFMinFind following SCF Guess.
 using 6 threads for integral computing
 -------------------------------------------------------
 OpenMP Integral computing Module                
 Release: version 1.0, May 2013, Q-Chem Inc. Pittsburgh 
 -------------------------------------------------------
 using 6 threads for integral computing
 -------------------------------------------------------
 OpenMP Integral computing Module                
 Release: version 1.0, May 2013, Q-Chem Inc. Pittsburgh 
 -------------------------------------------------------
 ---------------------------------------
  Cycle       Energy         DIIS Error
 ---------------------------------------
    1    -410.0052903002      8.06E-03
    2    -410.0109810120      4.40E-03
    3    -410.0349100571      1.24E-03
    4    -410.0693257767      1.26E-03
    5    -410.0719585569      1.78E-04 Done RCA. Switching to DIIS
    6    -410.0759815769      1.77E-04
    7    -410.0762357772      6.34E-05
    8    -410.0764182153      3.06E-05
    9    -410.0765074003      1.89E-05
   10    -410.0765567584      1.15E-05
   11    -410.0765749683      7.80E-06 Convergence criterion met
 ---------------------------------------
 <S^2> = 2.0197
 SCF time:  CPU 70.69 s  wall 11.81 s
 SCF   energy in the final basis set = -410.07657497
 Total energy in the final basis set = -410.07657497
 
 --------------------------------------------------------------
 
                    Orbital Energies (a.u.)
 --------------------------------------------------------------
 
 Alpha MOs
 -- Occupied --
-19.4071 -19.4046 -19.3485 -19.3476 -14.7710 -14.6217  -1.4431  -1.3723
 -1.2583  -1.2054  -0.8752  -0.7780  -0.7225  -0.7154  -0.6811  -0.6560
 -0.6374  -0.6309  -0.5136  -0.4857  -0.4656  -0.4577  -0.4369  -0.3429
 -- Virtual --
 -0.0292   0.0131   0.0788   0.1147   0.1260   0.1360   0.1395   0.1675
  0.1776   0.1873   0.2315   0.2358   0.2540   0.2662   0.2829   0.2905
  0.2979   0.3260   0.3330   0.3484   0.3519   0.3640   0.3706   0.3762
  0.4098   0.4251   0.4552   0.4610   0.4919   0.5293   0.7199   0.7641
  0.8039   0.8290   0.8341   0.8657   0.9349   0.9436   0.9814   1.0110
  1.0163   1.0503   1.0573   1.0726   1.0884   1.0968   1.1135   1.1304
  1.1325   1.1558   1.1776   1.1904   1.2229   1.2316   1.2736   1.3253
  1.4148   1.4534   1.5361   1.5543   1.5676   1.5727   1.5886   1.6095
  1.6395   1.6834   1.7105   1.7828   1.8196   1.8895   1.9517   1.9589
  1.9928   2.1166   2.2172   2.2613   2.3020   2.3431   2.4388   2.4932
  2.5347   2.5472   2.6800   2.7966   3.4878   3.5321   3.5409   3.6203
  3.6618   3.6793   3.6920   3.7137   3.7443   3.7634   3.7887   3.9088
  3.9555   4.0071   4.0166   4.0686   4.0704   4.4174   4.4522   4.4681
  4.5126   4.5882   4.6422   4.6663   4.6960   4.7134   4.7213   4.7683
  4.8463   4.8931   5.0017   5.0110   5.0189   5.0337   5.0417   5.0448
  5.0668   5.0783   5.0961   5.1053   5.1205   5.1316   5.1649   5.1903
  5.2107   5.2747   5.3030   5.3743   5.3966   5.4211   5.4489   5.5014
  5.5334   5.6025   5.6313   5.6672   5.8052   5.9047   5.9846   6.1245
  6.3002   6.5406   6.6518   6.6727   6.6783   6.7240   6.7348   6.7679
  6.7984   6.8183   6.8577   6.9093   6.9533   7.0379   7.0931   7.1288
  7.1627   7.1681   7.1965   7.2383   7.2979   7.3501   7.4559   7.5481
  7.6550   7.6919   7.8059   7.8474   7.9115   8.2833  35.9103  36.1246
 49.9873  50.1600  50.2351  50.2615
 
 Beta MOs
 -- Occupied --
-19.3943 -19.3860 -19.3480 -19.3463 -14.7710 -14.6040  -1.4388  -1.3334
 -1.2559  -1.1723  -0.8304  -0.7476  -0.7130  -0.7026  -0.6727  -0.6012
 -0.5837  -0.5613  -0.4901  -0.4685  -0.4611  -0.4355
 -- Virtual --
 -0.1573  -0.0224  -0.0094   0.0610   0.0890   0.1205   0.1381   0.1397
  0.1440   0.1715   0.1810   0.1916   0.2346   0.2391   0.2557   0.2704
  0.2875   0.2916   0.3026   0.3281   0.3339   0.3504   0.3548   0.3658
  0.3745   0.3842   0.4137   0.4337   0.4613   0.4635   0.5083   0.5337
  0.7319   0.7777   0.8101   0.8390   0.8490   0.8776   0.9417   0.9492
  0.9925   1.0204   1.0243   1.0647   1.0706   1.0868   1.1003   1.1125
  1.1226   1.1381   1.1438   1.1642   1.1861   1.2049   1.2372   1.2407
  1.2890   1.3370   1.4264   1.4650   1.5435   1.5646   1.5773   1.5797
  1.6033   1.6261   1.6626   1.7027   1.7238   1.7873   1.8262   1.8987
  1.9570   1.9712   2.0111   2.1331   2.2298   2.2736   2.3165   2.3525
  2.4540   2.5040   2.5416   2.5525   2.6864   2.7996   3.5028   3.5640
  3.5748   3.6346   3.6716   3.6932   3.7020   3.7217   3.7595   3.7940
  3.8509   3.9277   3.9847   4.0158   4.0240   4.0824   4.0858   4.4195
  4.4594   4.4711   4.5153   4.6144   4.6484   4.7003   4.7244   4.7344
  4.7536   4.8124   4.8781   4.9439   5.0274   5.0360   5.0447   5.0471
  5.0549   5.0583   5.0856   5.0925   5.1078   5.1188   5.1359   5.1594
  5.1988   5.2013   5.2318   5.3031   5.3189   5.3851   5.4061   5.4315
  5.4704   5.5260   5.5449   5.6256   5.6496   5.6840   5.8086   5.9166
  5.9999   6.1636   6.3077   6.5431   6.6825   6.6985   6.7141   6.7706
  6.7918   6.8004   6.8054   6.8239   6.8630   6.9105   6.9774   7.0542
  7.1095   7.1576   7.1719   7.2025   7.2256   7.2496   7.3117   7.3562
  7.4820   7.5523   7.6847   7.7221   7.8127   7.8624   7.9230   8.2850
 35.9315  36.1246  50.0010  50.1775  50.2371  50.2614
 --------------------------------------------------------------
 
 -----------------------------------------------------------------
                    Cartesian Multipole Moments
 -----------------------------------------------------------------
    Charge (ESU x 10^10)
                -0.0000
    Dipole Moment (Debye)
         X      -0.5062      Y      -0.6974      Z       0.2562
       Tot       0.8990
    Quadrupole Moments (Debye-Ang)
        XX     -31.1286     XY      -1.6391     YY     -33.9092
        XZ      -2.6046     YZ      -2.1317     ZZ     -32.4389
    Octopole Moments (Debye-Ang^2)
       XXX     -31.4840    XXY     -13.8473    XYY     -14.6835
       YYY     -38.1705    XXZ     -90.2167    XYZ      -5.3198
       YYZ     -96.3297    XZZ     -22.4257    YZZ     -20.2788
       ZZZ    -283.0994
    Hexadecapole Moments (Debye-Ang^3)
      XXXX    -181.4697   XXXY    -103.9314   XXYY     -91.6705
      XYYY    -114.5034   YYYY    -336.7085   XXXZ     -97.6471
      XXYZ     -39.5370   XYYZ     -45.5887   YYYZ    -102.4104
      XXZZ    -311.0131   XYZZ     -53.0270   YYZZ    -348.1544
      XZZZ    -144.5606   YZZZ    -128.8992   ZZZZ   -1733.0521
 -----------------------------------------------------------------
Archival summary:
1\1\centos77-c5\SP\ProcedureUnspecified\BasisUnspecified\42(3)\shihchen\MonJul1315:11:392020MonJul1315:11:392020\0\\#,ProcedureUnspecified,BasisUnspecified,\\0,3\N\O,1,1.18339\O,1,1.19032,2,132.087\O,1,1.42048,2,119.081,3,-179.712,0\N,4,1.64349,1,111.633,2,-37.4106,0\O,5,1.16839,4,120.904,1,95.6949,0\\\@

 Total job time:  16.38s(wall), 88.06s(cpu) 
 Mon Jul 13 15:11:39 2020

        *************************************************************
        *                                                           *
        *  Thank you very much for using Q-Chem.  Have a nice day.  *
        *                                                           *
        *************************************************************


