                  Welcome to Q-Chem
     A Quantum Leap Into The Future Of Chemistry


 Q-Chem 5.3 (devel), Q-Chem, Inc., Pleasanton, CA (2020)

 Yihan Shao,  Zhengting Gan,  E. Epifanovsky,  A. T. B. Gilbert,  M. Wormit,  
 J. Kussmann,  A. W. Lange,  A. Behn,  Jia Deng,  Xintian Feng,  D. Ghosh,  
 M. Goldey,  P. R. Horn,  L. D. Jacobson,  I. Kaliman,  T. Kus,  A. Landau,  
 Jie Liu,  E. I. Proynov,  R. M. Richard,  R. P. Steele,  E. J. Sundstrom,  
 H. L. Woodcock III,  P. M. Zimmerman,  D. Zuev,  B. Alam,  B. Albrecht,  
 E. Alguire,  S. A. Baeppler,  D. Barton,  Z. Benda,  Y. A. Bernard,  
 E. J. Berquist,  K. B. Bravaya,  H. Burton,  K. Carter-Fenk,  D. Casanova,  
 Chun-Min Chang,  Yunqing Chen,  A. Chien,  K. D. Closser,  M. P. Coons,  
 S. Coriani,  S. Dasgupta,  A. L. Dempwolff,  M. Diedenhofen,  Hainam Do,  
 R. G. Edgar,  Po-Tung Fang,  S. Faraji,  S. Fatehi,  Qingguo Feng,  
 J. Fosso-Tande,  J. Gayvert,  Qinghui Ge,  A. Ghysels,  G. Gidofalvi,  
 J. Gomes,  J. Gonthier,  A. Gunina,  D. Hait,  M. W. D. Hanson-Heine,  
 P. H. P. Harbach,  A. W. Hauser,  M. F. Herbst,  J. E. Herr,  
 E. G. Hohenstein,  Z. C. Holden,  Kerwin Hui,  B. C. Huynh,  T.-C. Jagau,  
 Hyunjun Ji,  B. Kaduk,  K. Khistyaev,  Jaehoon Kim,  P. Klunzinger,  K. Koh,  
 D. Kosenkov,  L. Koulias,  T. Kowalczyk,  C. M. Krauter,  A. Kunitsa,  
 Ka Un Lao,  A. Laurent,  K. V. Lawler,  Joonho Lee,  D. Lefrancois,  
 S. Lehtola,  D. S. Levine,  Yi-Pei Li,  You-Sheng Lin,  Fenglai Liu,  
 Kuan-Yu Liu,  E. Livshits,  M. Loipersberger,  A. Luenser,  P. Manohar,  
 E. Mansoor,  S. F. Manzer,  Shan-Ping Mao,  Yuezhi Mao,  N. Mardirossian,  
 A. V. Marenich,  T. Markovich,  L. A. Martinez-Martinez,  S. A. Maurer,  
 N. J. Mayhall,  S. C. McKenzie,  J.-M. Mewes,  P. Morgante,  A. F. Morrison,  
 J. W. Mullinax,  K. Nanda,  T. S. Nguyen-Beck,  R. Olivares-Amaya,  
 K. J. Oosterbaan,  J. A. Parkhill,  S. K. Paul,  F. Pavosevic,  Zheng Pei,  
 T. M. Perrine,  F. Plasser,  P. Pokhilko,  S. Prager,  A. Prociuk,  
 E. Ramos,  B. Rana,  D. R. Rehn,  F. Rob,  M. Scheurer,  M. Schneider,  
 N. Sergueev,  S. M. Sharada,  S. Sharma,  D. W. Small,  T. Stauch,  
 C. J. Stein,  T. Stein,  Yu-Chuan Su,  S. P. Veccham,  Zhen Tao,  
 A. J. W. Thom,  A. Tkatchenko,  T. Tsuchimochi,  N. M. Tubman,  L. Vogt,  
 M. L. Vidal,  O. Vydrov,  M. A. Watson,  J. Wenzel,  M. de Wergifosse,  
 T. A. Wesolowski,  A. White,  J. Witte,  A. Yamada,  Jun Yang,  K. Yao,  
 S. Yeganeh,  S. R. Yost,  Zhi-Qiang You,  A. Zech,  Igor Ying Zhang,  
 Xing Zhang,  Yan Zhao,  Ying Zhu,  B. R. Brooks,  G. K. L. Chan,  
 C. J. Cramer,  M. S. Gordon,  W. J. Hehre,  A. Klamt,  M. W. Schmidt,  
 C. D. Sherrill,  D. G. Truhlar,  A. Aspuru-Guzik,  R. Baer,  A. T. Bell,  
 N. A. Besley,  Jeng-Da Chai,  A. E. DePrince, III,  R. A. DiStasio Jr.,  
 A. Dreuw,  B. D. Dunietz,  T. R. Furlani,  Chao-Ping Hsu,  Yousung Jung,  
 Jing Kong,  D. S. Lambrecht,  WanZhen Liang,  C. Ochsenfeld,  
 V. A. Rassolov,  L. V. Slipchenko,  J. E. Subotnik,  T. Van Voorhis,  
 J. M. Herbert,  A. I. Krylov,  P. M. W. Gill,  M. Head-Gordon

 Contributors to earlier versions of Q-Chem not listed above: 
 R. D. Adamson,  B. Austin,  J. Baker,  G. J. O. Beran,  K. Brandhorst,  
 S. T. Brown,  E. F. C. Byrd,  A. K. Chakraborty,  C.-L. Cheng,  
 Siu Hung Chien,  D. M. Chipman,  D. L. Crittenden,  H. Dachsel,  
 R. J. Doerksen,  A. D. Dutoi,  L. Fusti-Molnar,  W. A. Goddard III,  
 A. Golubeva-Zadorozhnaya,  S. R. Gwaltney,  G. Hawkins,  A. Heyden,  
 S. Hirata,  G. Kedziora,  F. J. Keil,  C. Kelley,  Jihan Kim,  R. A. King,  
 R. Z. Khaliullin,  P. P. Korambath,  W. Kurlancheek,  A. M. Lee,  M. S. Lee,  
 S. V. Levchenko,  Ching Yeh Lin,  D. Liotard,  R. C. Lochan,  I. Lotan,  
 P. E. Maslen,  N. Nair,  D. P. O'Neill,  D. Neuhauser,  E. Neuscamman,  
 C. M. Oana,  R. Olson,  B. Peters,  R. Peverati,  P. A. Pieniazek,  
 Y. M. Rhee,  J. Ritchie,  M. A. Rohrdanz,  E. Rosta,  N. J. Russ,  
 H. F. Schaefer III,  N. E. Schultz,  N. Shenvi,  A. C. Simmonett,  A. Sodt,  
 D. Stuck,  K. S. Thanthiriwatte,  V. Vanovschi,  Tao Wang,  A. Warshel,  
 C. F. Williams,  Q. Wu,  X. Xu,  W. Zhang

 Please cite Q-Chem as follows:
 Y. Shao et al., Mol. Phys. 113, 184-215 (2015)
 DOI: 10.1080/00268976.2014.952696

 Q-Chem 5.3.0 for Intel X86 EM64T Linux

 Parts of Q-Chem use Armadillo 9.800.1 (Horizon Scraper).
 http://arma.sourceforge.net/

 Q-Chem begins on Mon Jul 13 15:14:15 2020  

Host: centos77-c5
0

     Scratch files written to /tmp/29025.centos77-h1/qchem59673//
Processing $rem in /opt/qchem-5.3.0-intel2020u1//config/preferences:
Processing $rem in /home/shihchengli/.qchemrc:

Checking the input file for inconsistencies... 	...done.

--------------------------------------------------------------
User input:
--------------------------------------------------------------
$rem
   JOBTYPE  sp
   EXCHANGE   omegaB97X-D
   BASIS   6-311+G(2df,2pd)
   UNRESTRICTED   True
   max_scf_cycles   250
   geom_opt_max_cycles   1500
   basis2 6-31G*
   scf_algorithm rca_diis
   SYM_IGNORE  TRUE
   print_input   true
   geom_opt_dmax   80
   pop_mulliken false
   XC_GRID 000075000302
$end

$molecule
0 3
N       0.7286669456     1.2540714939     2.4372910150
O       0.3587095728     2.1629984112     1.7636091979
O       1.7331762731     1.0665573823     3.0341317137
N       0.1184213290     -0.9910683142     3.4507279545
O       -0.7023083411     -1.6641055249     3.9391633979
O       -0.2916746493     0.2665356615     2.4753766110
$end
--------------------------------------------------------------
 ----------------------------------------------------------------
             Standard Nuclear Orientation (Angstroms)
    I     Atom           X                Y                Z
 ----------------------------------------------------------------
    1      N       0.7286669456     1.2540714939     2.4372910150
    2      O       0.3587095728     2.1629984112     1.7636091979
    3      O       1.7331762731     1.0665573823     3.0341317137
    4      N       0.1184213290    -0.9910683142     3.4507279545
    5      O      -0.7023083411    -1.6641055249     3.9391633979
    6      O      -0.2916746493     0.2665356615     2.4753766110
 ----------------------------------------------------------------
 Nuclear Repulsion Energy =         228.98673905 hartrees
 There are       24 alpha and       22 beta electrons
 Requested basis set is 6-311+G(2df,2pd)
 There are 48 shells and 204 basis functions

 Total QAlloc Memory Limit   2000 MB
 Mega-Array Size       188 MB
 MEM_STATIC part       192 MB

                       Distance Matrix (Angstroms)
             N (  1)   O (  2)   O (  3)   N (  4)   O (  5)
   O (  2)  1.190321
   O (  3)  1.183393  2.169232
   N (  4)  2.537737  3.585003  2.648549
   O (  5)  3.580373  4.528302  3.769242  1.168394
   O (  6)  1.420484  2.127483  2.247724  1.643489  2.457370
 
 A cutoff of  1.0D-09 yielded   1011 shell pairs
 There are     18784 function pairs (     24601 Cartesian)
 Smallest overlap matrix eigenvalue = 7.23E-04

 Scale SEOQF with 1.000000e-01/1.000000e-01/1.000000e-01

 Standard Electronic Orientation quadrupole field applied
 Nucleus-field energy     =    -0.0000000351 hartrees
 Requested basis set is 6-31G(d)
 There are 24 shells and 84 basis functions
 A cutoff of  1.0D-09 yielded    265 shell pairs
 There are      3478 function pairs (      3998 Cartesian)
 Smallest overlap matrix eigenvalue = 4.55E-03
 Guess from superposition of atomic densities
 Warning:  Energy on first SCF cycle will be non-variational
 SAD guess density has 46.000000 electrons
 Long-range K will be added via erf
 Coulomb attenuation parameter = 0.2 bohr**(-1)
 An unrestricted hybrid HF-DFT SCF calculation will be
 performed using Relaxed Constraint Minimization + Pulay DIIS
 Exchange:     0.2220 Hartree-Fock + 1.0000 wB97X-D + LR-HF
 Correlation:  1.0000 wB97X-D
 Using Euler-Maclaurin-Lebedev (75,302) quadrature formula
 Dispersion:   Grimme D
 SCF converges when DIIS error is below 1.0E-04
 using 6 threads for integral computing
 -------------------------------------------------------
 OpenMP Integral computing Module                
 Release: version 1.0, May 2013, Q-Chem Inc. Pittsburgh 
 -------------------------------------------------------
 using 6 threads for integral computing
 -------------------------------------------------------
 OpenMP Integral computing Module                
 Release: version 1.0, May 2013, Q-Chem Inc. Pittsburgh 
 -------------------------------------------------------
 ---------------------------------------
  Cycle       Energy         DIIS Error
 ---------------------------------------
    1    -411.0327785731      8.84E-02
    2    -409.6558845054      1.95E-02
    3    -409.7588676173      4.58E-03
    4    -409.9083648309      4.84E-03
    5    -409.9150428462      6.35E-04 Done RCA. Switching to DIIS
    6    -409.9240581431      5.52E-04
    7    -409.9245132494      1.22E-04
    8    -409.9245997474      9.69E-05 Convergence criterion met
 ---------------------------------------
 <S^2> = 2.0158
 SCF time:  CPU 14.42 s  wall 2.42 s
 SCF   energy in the small basis set = -409.92459975
 Total energy in the small basis set = -409.92459975
 ----------------------------------------------------
  Cycle       Energy    
 ----------------------------------------------------
    1     -41.7575812571     -4.18E+01
 Long-range K will be added via erf
 Coulomb attenuation parameter = 0.2 bohr**(-1)
 An unrestricted hybrid HF-DFT SCF calculation will be
 performed using Relaxed Constraint Minimization + Pulay DIIS
 Exchange:     0.2220 Hartree-Fock + 1.0000 wB97X-D + LR-HF
 Correlation:  1.0000 wB97X-D
 Using Euler-Maclaurin-Lebedev (75,302) quadrature formula
 Dispersion:   Grimme D
 SCF converges when DIIS error is below 1.0E-05
 Basis2 calculation detected. Using small basis as guess for larger.
 SCFMinFind is unable to tell whether the solution found is close.
 Resetting ReadMinima to 0 and attempting to follow guess.
 SCFMinFind following SCF Guess.
 using 6 threads for integral computing
 -------------------------------------------------------
 OpenMP Integral computing Module                
 Release: version 1.0, May 2013, Q-Chem Inc. Pittsburgh 
 -------------------------------------------------------
 using 6 threads for integral computing
 -------------------------------------------------------
 OpenMP Integral computing Module                
 Release: version 1.0, May 2013, Q-Chem Inc. Pittsburgh 
 -------------------------------------------------------
 ---------------------------------------
  Cycle       Energy         DIIS Error
 ---------------------------------------
    1    -410.0138763766      8.02E-03
    2    -410.0244112665      4.09E-03
    3    -410.0450825968      1.11E-03
    4    -410.0744998757      1.21E-03
    5    -410.0766042050      1.96E-04 Done RCA. Switching to DIIS
    6    -410.0795991320      2.11E-04
    7    -410.0798223767      5.30E-05
    8    -410.0798932411      1.93E-05
    9    -410.0799146969      9.41E-06 Convergence criterion met
 ---------------------------------------
 <S^2> = 2.0182
 SCF time:  CPU 58.74 s  wall 9.82 s
 SCF   energy in the final basis set = -410.07991470
 Total energy in the final basis set = -410.07991470
 
 --------------------------------------------------------------
 
                    Orbital Energies (a.u.)
 --------------------------------------------------------------
 
 Alpha MOs
 -- Occupied --
-19.4134 -19.4004 -19.3480 -19.3470 -14.7752 -14.6200  -1.4440  -1.3694
 -1.2589  -1.2094  -0.8732  -0.7791  -0.7195  -0.7185  -0.6842  -0.6536
 -0.6465  -0.6237  -0.5054  -0.4963  -0.4640  -0.4603  -0.4391  -0.3344
 -- Virtual --
 -0.0222   0.0058   0.0713   0.1144   0.1208   0.1341   0.1423   0.1675
  0.1786   0.1964   0.2324   0.2417   0.2505   0.2656   0.2857   0.2917
  0.3079   0.3257   0.3354   0.3419   0.3512   0.3554   0.3768   0.3808
  0.4081   0.4288   0.4436   0.4768   0.4920   0.5241   0.7412   0.7653
  0.7982   0.8066   0.8927   0.8969   0.9283   0.9596   0.9850   0.9987
  1.0272   1.0398   1.0590   1.0741   1.0865   1.0912   1.1011   1.1216
  1.1297   1.1522   1.1603   1.1845   1.2131   1.2373   1.2661   1.3414
  1.4619   1.4703   1.5170   1.5397   1.5518   1.5716   1.5957   1.6103
  1.6290   1.6735   1.7464   1.7984   1.8308   1.8803   1.9239   1.9488
  1.9793   2.1358   2.1523   2.1846   2.3574   2.3764   2.4389   2.5036
  2.5410   2.5579   2.7152   2.8118   3.5021   3.5448   3.5674   3.6034
  3.6187   3.6557   3.6691   3.7330   3.7466   3.7658   3.7878   3.8800
  3.9614   3.9744   4.0171   4.0795   4.1327   4.4242   4.4557   4.4925
  4.4971   4.5758   4.6417   4.6470   4.6975   4.7215   4.7488   4.7612
  4.7881   4.9097   4.9919   5.0038   5.0208   5.0266   5.0420   5.0486
  5.0597   5.0747   5.0925   5.1110   5.1263   5.1287   5.1578   5.1775
  5.2033   5.2983   5.3305   5.3679   5.4035   5.4105   5.4697   5.4959
  5.5527   5.5588   5.6418   5.6624   5.8208   5.8640   5.9890   6.1334
  6.3275   6.5355   6.6514   6.6702   6.7007   6.7191   6.7497   6.7649
  6.7891   6.8321   6.8873   6.9071   6.9318   6.9947   7.0970   7.1043
  7.1570   7.1687   7.1900   7.2686   7.2830   7.3466   7.4515   7.5670
  7.6681   7.6970   7.8218   7.8412   7.9181   8.2773  35.9124  36.1209
 49.9867  50.1641  50.2381  50.2631
 
 Beta MOs
 -- Occupied --
-19.3993 -19.3828 -19.3474 -19.3460 -14.7755 -14.6014  -1.4399  -1.3313
 -1.2569  -1.1750  -0.8312  -0.7443  -0.7157  -0.7054  -0.6729  -0.6035
 -0.5778  -0.5670  -0.4794  -0.4711  -0.4616  -0.4464
 -- Virtual --
 -0.1477  -0.0274   0.0082   0.0547   0.0824   0.1178   0.1308   0.1382
  0.1470   0.1692   0.1808   0.1999   0.2343   0.2432   0.2550   0.2666
  0.2900   0.2963   0.3118   0.3263   0.3374   0.3437   0.3528   0.3578
  0.3792   0.3877   0.4173   0.4350   0.4460   0.4797   0.5090   0.5292
  0.7516   0.7785   0.8139   0.8252   0.8976   0.9052   0.9353   0.9713
  0.9936   1.0077   1.0332   1.0530   1.0644   1.0867   1.1037   1.1068
  1.1126   1.1289   1.1420   1.1566   1.1723   1.1979   1.2219   1.2507
  1.2791   1.3556   1.4716   1.4863   1.5371   1.5431   1.5604   1.5758
  1.6065   1.6277   1.6569   1.6808   1.7575   1.8027   1.8460   1.8950
  1.9288   1.9568   1.9987   2.1567   2.1661   2.1917   2.3614   2.3877
  2.4596   2.5195   2.5441   2.5606   2.7252   2.8158   3.5285   3.5814
  3.5863   3.6172   3.6334   3.6597   3.6820   3.7489   3.7669   3.8071
  3.8321   3.9003   3.9915   3.9979   4.0177   4.0894   4.1450   4.4260
  4.4585   4.4973   4.4989   4.6113   4.6499   4.6776   4.7208   4.7534
  4.7775   4.8070   4.8225   4.9586   5.0110   5.0228   5.0435   5.0499
  5.0555   5.0640   5.0752   5.0888   5.1159   5.1221   5.1344   5.1522
  5.1796   5.2041   5.2182   5.3258   5.3524   5.3927   5.4071   5.4214
  5.4850   5.5150   5.5593   5.5912   5.6595   5.6793   5.8272   5.8713
  6.0045   6.1699   6.3408   6.5373   6.6829   6.6966   6.7382   6.7667
  6.7834   6.7945   6.8073   6.8391   6.8901   6.9080   6.9714   7.0077
  7.1183   7.1211   7.1689   7.1960   7.2193   7.2748   7.3068   7.3535
  7.4744   7.5770   7.6976   7.7248   7.8328   7.8588   7.9266   8.2790
 35.9348  36.1207  50.0014  50.1801  50.2403  50.2631
 --------------------------------------------------------------
 
 -----------------------------------------------------------------
                    Cartesian Multipole Moments
 -----------------------------------------------------------------
    Charge (ESU x 10^10)
                -0.0000
    Dipole Moment (Debye)
         X      -0.2278      Y      -0.7482      Z       0.2719
       Tot       0.8280
    Quadrupole Moments (Debye-Ang)
        XX     -33.4832     XY      -1.2010     YY     -33.9128
        XZ      -1.3488     YZ      -0.6042     ZZ     -30.4511
    Octopole Moments (Debye-Ang^2)
       XXX     -35.4094    XXY     -13.7028    XYY     -11.0325
       YYY     -39.4234    XXZ     -96.8165    XYZ      -4.6778
       YYZ     -92.4613    XZZ     -14.8885    YZZ      -9.8017
       ZZZ    -266.3291
    Hexadecapole Moments (Debye-Ang^3)
      XXXX    -165.5755   XXXY     -75.5267   XXYY     -93.2322
      XYYY     -77.2515   YYYY    -393.4576   XXXZ     -88.0821
      XXYZ     -12.7943   XYYZ     -24.0822   YYYZ     -20.7252
      XXZZ    -325.6463   XYZZ     -41.3300   YYZZ    -338.5868
      XZZZ     -85.1083   YZZZ      -3.5228   ZZZZ   -1648.1801
 -----------------------------------------------------------------
Archival summary:
1\1\centos77-c5\SP\ProcedureUnspecified\BasisUnspecified\42(3)\shihchen\MonJul1315:14:292020MonJul1315:14:292020\0\\#,ProcedureUnspecified,BasisUnspecified,\\0,3\N\O,1,1.18339\O,1,1.19032,2,132.087\O,1,1.42048,2,119.081,3,-179.712,0\N,4,1.64349,1,111.633,2,2.58945,0\O,5,1.16839,4,120.904,1,155.695,0\\\@

 Total job time:  14.61s(wall), 77.51s(cpu) 
 Mon Jul 13 15:14:29 2020

        *************************************************************
        *                                                           *
        *  Thank you very much for using Q-Chem.  Have a nice day.  *
        *                                                           *
        *************************************************************


