                  Welcome to Q-Chem
     A Quantum Leap Into The Future Of Chemistry


 Q-Chem 5.3 (devel), Q-Chem, Inc., Pleasanton, CA (2020)

 Yihan Shao,  Zhengting Gan,  E. Epifanovsky,  A. T. B. Gilbert,  M. Wormit,  
 J. Kussmann,  A. W. Lange,  A. Behn,  Jia Deng,  Xintian Feng,  D. Ghosh,  
 M. Goldey,  P. R. Horn,  L. D. Jacobson,  I. Kaliman,  T. Kus,  A. Landau,  
 Jie Liu,  E. I. Proynov,  R. M. Richard,  R. P. Steele,  E. J. Sundstrom,  
 H. L. Woodcock III,  P. M. Zimmerman,  D. Zuev,  B. Alam,  B. Albrecht,  
 E. Alguire,  S. A. Baeppler,  D. Barton,  Z. Benda,  Y. A. Bernard,  
 E. J. Berquist,  K. B. Bravaya,  H. Burton,  K. Carter-Fenk,  D. Casanova,  
 Chun-Min Chang,  Yunqing Chen,  A. Chien,  K. D. Closser,  M. P. Coons,  
 S. Coriani,  S. Dasgupta,  A. L. Dempwolff,  M. Diedenhofen,  Hainam Do,  
 R. G. Edgar,  Po-Tung Fang,  S. Faraji,  S. Fatehi,  Qingguo Feng,  
 J. Fosso-Tande,  J. Gayvert,  Qinghui Ge,  A. Ghysels,  G. Gidofalvi,  
 J. Gomes,  J. Gonthier,  A. Gunina,  D. Hait,  M. W. D. Hanson-Heine,  
 P. H. P. Harbach,  A. W. Hauser,  M. F. Herbst,  J. E. Herr,  
 E. G. Hohenstein,  Z. C. Holden,  Kerwin Hui,  B. C. Huynh,  T.-C. Jagau,  
 Hyunjun Ji,  B. Kaduk,  K. Khistyaev,  Jaehoon Kim,  P. Klunzinger,  K. Koh,  
 D. Kosenkov,  L. Koulias,  T. Kowalczyk,  C. M. Krauter,  A. Kunitsa,  
 Ka Un Lao,  A. Laurent,  K. V. Lawler,  Joonho Lee,  D. Lefrancois,  
 S. Lehtola,  D. S. Levine,  Yi-Pei Li,  You-Sheng Lin,  Fenglai Liu,  
 Kuan-Yu Liu,  E. Livshits,  M. Loipersberger,  A. Luenser,  P. Manohar,  
 E. Mansoor,  S. F. Manzer,  Shan-Ping Mao,  Yuezhi Mao,  N. Mardirossian,  
 A. V. Marenich,  T. Markovich,  L. A. Martinez-Martinez,  S. A. Maurer,  
 N. J. Mayhall,  S. C. McKenzie,  J.-M. Mewes,  P. Morgante,  A. F. Morrison,  
 J. W. Mullinax,  K. Nanda,  T. S. Nguyen-Beck,  R. Olivares-Amaya,  
 K. J. Oosterbaan,  J. A. Parkhill,  S. K. Paul,  F. Pavosevic,  Zheng Pei,  
 T. M. Perrine,  F. Plasser,  P. Pokhilko,  S. Prager,  A. Prociuk,  
 E. Ramos,  B. Rana,  D. R. Rehn,  F. Rob,  M. Scheurer,  M. Schneider,  
 N. Sergueev,  S. M. Sharada,  S. Sharma,  D. W. Small,  T. Stauch,  
 C. J. Stein,  T. Stein,  Yu-Chuan Su,  S. P. Veccham,  Zhen Tao,  
 A. J. W. Thom,  A. Tkatchenko,  T. Tsuchimochi,  N. M. Tubman,  L. Vogt,  
 M. L. Vidal,  O. Vydrov,  M. A. Watson,  J. Wenzel,  M. de Wergifosse,  
 T. A. Wesolowski,  A. White,  J. Witte,  A. Yamada,  Jun Yang,  K. Yao,  
 S. Yeganeh,  S. R. Yost,  Zhi-Qiang You,  A. Zech,  Igor Ying Zhang,  
 Xing Zhang,  Yan Zhao,  Ying Zhu,  B. R. Brooks,  G. K. L. Chan,  
 C. J. Cramer,  M. S. Gordon,  W. J. Hehre,  A. Klamt,  M. W. Schmidt,  
 C. D. Sherrill,  D. G. Truhlar,  A. Aspuru-Guzik,  R. Baer,  A. T. Bell,  
 N. A. Besley,  Jeng-Da Chai,  A. E. DePrince, III,  R. A. DiStasio Jr.,  
 A. Dreuw,  B. D. Dunietz,  T. R. Furlani,  Chao-Ping Hsu,  Yousung Jung,  
 Jing Kong,  D. S. Lambrecht,  WanZhen Liang,  C. Ochsenfeld,  
 V. A. Rassolov,  L. V. Slipchenko,  J. E. Subotnik,  T. Van Voorhis,  
 J. M. Herbert,  A. I. Krylov,  P. M. W. Gill,  M. Head-Gordon

 Contributors to earlier versions of Q-Chem not listed above: 
 R. D. Adamson,  B. Austin,  J. Baker,  G. J. O. Beran,  K. Brandhorst,  
 S. T. Brown,  E. F. C. Byrd,  A. K. Chakraborty,  C.-L. Cheng,  
 Siu Hung Chien,  D. M. Chipman,  D. L. Crittenden,  H. Dachsel,  
 R. J. Doerksen,  A. D. Dutoi,  L. Fusti-Molnar,  W. A. Goddard III,  
 A. Golubeva-Zadorozhnaya,  S. R. Gwaltney,  G. Hawkins,  A. Heyden,  
 S. Hirata,  G. Kedziora,  F. J. Keil,  C. Kelley,  Jihan Kim,  R. A. King,  
 R. Z. Khaliullin,  P. P. Korambath,  W. Kurlancheek,  A. M. Lee,  M. S. Lee,  
 S. V. Levchenko,  Ching Yeh Lin,  D. Liotard,  R. C. Lochan,  I. Lotan,  
 P. E. Maslen,  N. Nair,  D. P. O'Neill,  D. Neuhauser,  E. Neuscamman,  
 C. M. Oana,  R. Olson,  B. Peters,  R. Peverati,  P. A. Pieniazek,  
 Y. M. Rhee,  J. Ritchie,  M. A. Rohrdanz,  E. Rosta,  N. J. Russ,  
 H. F. Schaefer III,  N. E. Schultz,  N. Shenvi,  A. C. Simmonett,  A. Sodt,  
 D. Stuck,  K. S. Thanthiriwatte,  V. Vanovschi,  Tao Wang,  A. Warshel,  
 C. F. Williams,  Q. Wu,  X. Xu,  W. Zhang

 Please cite Q-Chem as follows:
 Y. Shao et al., Mol. Phys. 113, 184-215 (2015)
 DOI: 10.1080/00268976.2014.952696

 Q-Chem 5.3.0 for Intel X86 EM64T Linux

 Parts of Q-Chem use Armadillo 9.800.1 (Horizon Scraper).
 http://arma.sourceforge.net/

 Q-Chem begins on Mon Jul 13 15:19:59 2020  

Host: centos77-c5
0

     Scratch files written to /tmp/29025.centos77-h1/qchem34133//
Processing $rem in /opt/qchem-5.3.0-intel2020u1//config/preferences:
Processing $rem in /home/shihchengli/.qchemrc:

Checking the input file for inconsistencies... 	...done.

--------------------------------------------------------------
User input:
--------------------------------------------------------------
$rem
   JOBTYPE  sp
   EXCHANGE   omegaB97X-D
   BASIS   6-311+G(2df,2pd)
   UNRESTRICTED   True
   max_scf_cycles   250
   geom_opt_max_cycles   1500
   basis2 6-31G*
   scf_algorithm rca_diis
   SYM_IGNORE  TRUE
   print_input   true
   geom_opt_dmax   80
   pop_mulliken false
   XC_GRID 000075000302
$end

$molecule
0 3
N       0.6642867645     1.0717927722     2.4130417049
O       0.5947029924     2.1635723890     1.9439583896
O       1.5836872203     0.3594677718     2.6314799024
N       -0.6221540173     -0.8449432342     3.4672238983
O       0.3692927979     -1.2853660585     3.9010515244
O       -0.6448246277     0.6304654696     2.7435444704
$end
--------------------------------------------------------------
 ----------------------------------------------------------------
             Standard Nuclear Orientation (Angstroms)
    I     Atom           X                Y                Z
 ----------------------------------------------------------------
    1      N       0.6642867645     1.0717927722     2.4130417049
    2      O       0.5947029924     2.1635723890     1.9439583896
    3      O       1.5836872203     0.3594677718     2.6314799024
    4      N      -0.6221540173    -0.8449432342     3.4672238983
    5      O       0.3692927979    -1.2853660585     3.9010515244
    6      O      -0.6448246277     0.6304654696     2.7435444704
 ----------------------------------------------------------------
 Nuclear Repulsion Energy =         237.41654630 hartrees
 There are       24 alpha and       22 beta electrons
 Requested basis set is 6-311+G(2df,2pd)
 There are 48 shells and 204 basis functions

 Total QAlloc Memory Limit   2000 MB
 Mega-Array Size       188 MB
 MEM_STATIC part       192 MB

                       Distance Matrix (Angstroms)
             N (  1)   O (  2)   O (  3)   N (  4)   O (  5)
   O (  2)  1.190321
   O (  3)  1.183393  2.169232
   N (  4)  2.537737  3.585003  2.648549
   O (  5)  2.803104  3.971926  2.406667  1.168394
   O (  6)  1.420484  2.127483  2.247724  1.643489  2.457370
 
 A cutoff of  1.0D-09 yielded   1049 shell pairs
 There are     19600 function pairs (     25811 Cartesian)
 Smallest overlap matrix eigenvalue = 4.90E-04

 Scale SEOQF with 1.000000e-01/1.000000e-01/1.000000e-01

 Standard Electronic Orientation quadrupole field applied
 Nucleus-field energy     =    -0.0000000360 hartrees
 Requested basis set is 6-31G(d)
 There are 24 shells and 84 basis functions
 A cutoff of  1.0D-09 yielded    275 shell pairs
 There are      3566 function pairs (      4098 Cartesian)
 Smallest overlap matrix eigenvalue = 4.69E-03
 Guess from superposition of atomic densities
 Warning:  Energy on first SCF cycle will be non-variational
 SAD guess density has 46.000000 electrons
 Long-range K will be added via erf
 Coulomb attenuation parameter = 0.2 bohr**(-1)
 An unrestricted hybrid HF-DFT SCF calculation will be
 performed using Relaxed Constraint Minimization + Pulay DIIS
 Exchange:     0.2220 Hartree-Fock + 1.0000 wB97X-D + LR-HF
 Correlation:  1.0000 wB97X-D
 Using Euler-Maclaurin-Lebedev (75,302) quadrature formula
 Dispersion:   Grimme D
 SCF converges when DIIS error is below 1.0E-04
 using 6 threads for integral computing
 -------------------------------------------------------
 OpenMP Integral computing Module                
 Release: version 1.0, May 2013, Q-Chem Inc. Pittsburgh 
 -------------------------------------------------------
 using 6 threads for integral computing
 -------------------------------------------------------
 OpenMP Integral computing Module                
 Release: version 1.0, May 2013, Q-Chem Inc. Pittsburgh 
 -------------------------------------------------------
 ---------------------------------------
  Cycle       Energy         DIIS Error
 ---------------------------------------
    1    -411.0451898636      8.85E-02
    2    -409.6485678494      1.95E-02
    3    -409.7526854201      4.45E-03
    4    -409.9012883237      4.65E-03
    5    -409.9075675781      6.61E-04 Done RCA. Switching to DIIS
    6    -409.9162048270      5.85E-04
    7    -409.9167199391      2.10E-04
    8    -409.9168705228      8.33E-05 Convergence criterion met
 ---------------------------------------
 <S^2> = 2.0150
 SCF time:  CPU 15.15 s  wall 2.54 s
 SCF   energy in the small basis set = -409.91687052
 Total energy in the small basis set = -409.91687052
 ----------------------------------------------------
  Cycle       Energy    
 ----------------------------------------------------
    1     -41.7665800650     -4.18E+01
 Long-range K will be added via erf
 Coulomb attenuation parameter = 0.2 bohr**(-1)
 An unrestricted hybrid HF-DFT SCF calculation will be
 performed using Relaxed Constraint Minimization + Pulay DIIS
 Exchange:     0.2220 Hartree-Fock + 1.0000 wB97X-D + LR-HF
 Correlation:  1.0000 wB97X-D
 Using Euler-Maclaurin-Lebedev (75,302) quadrature formula
 Dispersion:   Grimme D
 SCF converges when DIIS error is below 1.0E-05
 Basis2 calculation detected. Using small basis as guess for larger.
 SCFMinFind is unable to tell whether the solution found is close.
 Resetting ReadMinima to 0 and attempting to follow guess.
 SCFMinFind following SCF Guess.
 using 6 threads for integral computing
 -------------------------------------------------------
 OpenMP Integral computing Module                
 Release: version 1.0, May 2013, Q-Chem Inc. Pittsburgh 
 -------------------------------------------------------
 using 6 threads for integral computing
 -------------------------------------------------------
 OpenMP Integral computing Module                
 Release: version 1.0, May 2013, Q-Chem Inc. Pittsburgh 
 -------------------------------------------------------
 ---------------------------------------
  Cycle       Energy         DIIS Error
 ---------------------------------------
    1    -410.0087230211      7.99E-03
    2    -410.0225159703      3.85E-03
    3    -410.0410186584      1.01E-03
    4    -410.0672428802      1.06E-03
    5    -410.0688959751      1.58E-04 Done RCA. Switching to DIIS
    6    -410.0712854591      1.54E-04
    7    -410.0714579381      5.19E-05
    8    -410.0715388816      2.46E-05
    9    -410.0715763669      1.31E-05
   10    -410.0715857435      6.35E-06 Convergence criterion met
 ---------------------------------------
 <S^2> = 2.0180
 SCF time:  CPU 67.47 s  wall 11.28 s
 SCF   energy in the final basis set = -410.07158574
 Total energy in the final basis set = -410.07158574
 
 --------------------------------------------------------------
 
                    Orbital Energies (a.u.)
 --------------------------------------------------------------
 
 Alpha MOs
 -- Occupied --
-19.4103 -19.4026 -19.3511 -19.3490 -14.7758 -14.6145  -1.4475  -1.3713
 -1.2626  -1.2065  -0.8752  -0.7799  -0.7213  -0.7128  -0.6860  -0.6606
 -0.6504  -0.6138  -0.5057  -0.5034  -0.4672  -0.4539  -0.4414  -0.3316
 -- Virtual --
 -0.0239   0.0133   0.0759   0.1059   0.1287   0.1363   0.1421   0.1690
  0.1759   0.1937   0.2231   0.2358   0.2431   0.2694   0.2830   0.2977
  0.3079   0.3211   0.3406   0.3498   0.3554   0.3582   0.3761   0.3974
  0.4258   0.4414   0.4448   0.4743   0.4933   0.5290   0.7424   0.7531
  0.7908   0.8256   0.8566   0.8863   0.9305   0.9378   0.9521   0.9958
  1.0053   1.0299   1.0596   1.0803   1.0878   1.1000   1.1149   1.1231
  1.1305   1.1557   1.1780   1.2043   1.2264   1.2419   1.3000   1.3376
  1.4543   1.5034   1.5167   1.5320   1.5594   1.5704   1.5818   1.6161
  1.6424   1.7153   1.7556   1.8032   1.8461   1.8708   1.9247   1.9732
  1.9927   2.1135   2.1946   2.2780   2.3397   2.3664   2.4020   2.4929
  2.5355   2.5760   2.7362   2.8217   3.5025   3.5318   3.5738   3.6069
  3.6316   3.6518   3.6745   3.7034   3.7522   3.7604   3.7974   3.8660
  3.9574   3.9794   4.0171   4.0839   4.1564   4.4278   4.4659   4.4867
  4.4981   4.6074   4.6501   4.6609   4.7034   4.7260   4.7310   4.7659
  4.8077   4.9426   4.9842   4.9992   5.0045   5.0247   5.0272   5.0387
  5.0739   5.0824   5.0961   5.1176   5.1281   5.1527   5.1758   5.1863
  5.2617   5.3116   5.3203   5.3519   5.4011   5.4463   5.4681   5.4905
  5.5510   5.5743   5.6177   5.6665   5.8063   5.8642   5.9836   6.1040
  6.3150   6.5329   6.6493   6.6566   6.7057   6.7241   6.7495   6.7708
  6.8021   6.8309   6.9048   6.9207   6.9607   6.9931   7.0984   7.1200
  7.1625   7.1658   7.2099   7.2706   7.3204   7.3530   7.4250   7.5686
  7.6558   7.7158   7.8272   7.8536   7.9182   8.2878  35.9219  36.1229
 49.9880  50.1692  50.2378  50.2630
 
 Beta MOs
 -- Occupied --
-19.3977 -19.3835 -19.3490 -19.3486 -14.7761 -14.5965  -1.4428  -1.3320
 -1.2591  -1.1750  -0.8297  -0.7525  -0.7182  -0.6971  -0.6729  -0.6142
 -0.5727  -0.5587  -0.4802  -0.4752  -0.4626  -0.4437
 -- Virtual --
 -0.1539  -0.0272   0.0101   0.0649   0.0865   0.1126   0.1334   0.1390
  0.1469   0.1700   0.1835   0.1992   0.2248   0.2371   0.2476   0.2723
  0.2842   0.2997   0.3144   0.3219   0.3424   0.3510   0.3576   0.3606
  0.3797   0.4031   0.4356   0.4430   0.4498   0.4786   0.5106   0.5370
  0.7528   0.7607   0.8206   0.8424   0.8625   0.8885   0.9374   0.9491
  0.9631   1.0057   1.0084   1.0443   1.0680   1.0905   1.0949   1.1116
  1.1269   1.1324   1.1412   1.1640   1.1942   1.2156   1.2388   1.2548
  1.3079   1.3581   1.4654   1.5202   1.5271   1.5400   1.5670   1.5845
  1.5948   1.6296   1.6564   1.7287   1.7675   1.8068   1.8617   1.8908
  1.9291   1.9875   2.0075   2.1315   2.2025   2.2925   2.3590   2.3714
  2.4128   2.5103   2.5377   2.5792   2.7470   2.8251   3.5285   3.5657
  3.5938   3.6210   3.6450   3.6544   3.6856   3.7236   3.7656   3.8173
  3.8302   3.8825   3.9807   4.0018   4.0222   4.0935   4.1694   4.4312
  4.4688   4.4904   4.5020   4.6395   4.6538   4.6942   4.7296   4.7507
  4.7674   4.8124   4.8406   4.9855   5.0031   5.0185   5.0339   5.0393
  5.0420   5.0600   5.0828   5.0905   5.1188   5.1312   5.1643   5.1665
  5.1908   5.2100   5.2808   5.3365   5.3460   5.3687   5.4037   5.4577
  5.4881   5.5181   5.5598   5.6033   5.6440   5.6747   5.8131   5.8711
  5.9992   6.1395   6.3268   6.5351   6.6714   6.6967   6.7478   6.7598
  6.7849   6.7890   6.8215   6.8432   6.9075   6.9512   6.9893   7.0080
  7.1202   7.1381   7.1669   7.1991   7.2380   7.2759   7.3345   7.3733
  7.4487   7.5776   7.6856   7.7400   7.8420   7.8684   7.9279   8.2904
 35.9434  36.1228  50.0011  50.1870  50.2402  50.2634
 --------------------------------------------------------------
 
 -----------------------------------------------------------------
                    Cartesian Multipole Moments
 -----------------------------------------------------------------
    Charge (ESU x 10^10)
                -0.0000
    Dipole Moment (Debye)
         X      -0.4552      Y      -0.6365      Z       0.3353
       Tot       0.8513
    Quadrupole Moments (Debye-Ang)
        XX     -33.8246     XY       0.5770     YY     -33.6746
        XZ      -1.3358     YZ      -0.4827     ZZ     -29.3175
    Octopole Moments (Debye-Ang^2)
       XXX     -33.7079    XXY     -12.4258    XYY     -11.4082
       YYY     -40.8532    XXZ     -95.3853    XYZ       3.1852
       YYZ     -91.8746    XZZ     -13.7485    YZZ      -9.3584
       ZZZ    -259.3913
    Hexadecapole Moments (Debye-Ang^3)
      XXXX    -165.1064   XXXY     -37.4952   XXYY     -77.5813
      XYYY     -36.9880   YYYY    -312.7462   XXXZ     -76.5884
      XXYZ     -11.2590   XYYZ     -25.0631   YYYZ     -39.4955
      XXZZ    -313.0601   XYZZ       2.0193   YYZZ    -319.5242
      XZZZ     -78.7314   YZZZ     -12.7996   ZZZZ   -1600.7039
 -----------------------------------------------------------------
Archival summary:
1\1\centos77-c5\SP\ProcedureUnspecified\BasisUnspecified\42(3)\shihchen\MonJul1315:20:162020MonJul1315:20:162020\0\\#,ProcedureUnspecified,BasisUnspecified,\\0,3\N\O,1,1.18339\O,1,1.19032,2,132.087\O,1,1.42048,2,119.081,3,-179.712,0\N,4,1.64349,1,111.633,2,2.58945,0\O,5,1.16839,4,120.904,1,15.6949,0\\\@

 Total job time:  16.39s(wall), 87.18s(cpu) 
 Mon Jul 13 15:20:16 2020

        *************************************************************
        *                                                           *
        *  Thank you very much for using Q-Chem.  Have a nice day.  *
        *                                                           *
        *************************************************************


