                  Welcome to Q-Chem
     A Quantum Leap Into The Future Of Chemistry


 Q-Chem 5.3 (devel), Q-Chem, Inc., Pleasanton, CA (2020)

 Yihan Shao,  Zhengting Gan,  E. Epifanovsky,  A. T. B. Gilbert,  M. Wormit,  
 J. Kussmann,  A. W. Lange,  A. Behn,  Jia Deng,  Xintian Feng,  D. Ghosh,  
 M. Goldey,  P. R. Horn,  L. D. Jacobson,  I. Kaliman,  T. Kus,  A. Landau,  
 Jie Liu,  E. I. Proynov,  R. M. Richard,  R. P. Steele,  E. J. Sundstrom,  
 H. L. Woodcock III,  P. M. Zimmerman,  D. Zuev,  B. Alam,  B. Albrecht,  
 E. Alguire,  S. A. Baeppler,  D. Barton,  Z. Benda,  Y. A. Bernard,  
 E. J. Berquist,  K. B. Bravaya,  H. Burton,  K. Carter-Fenk,  D. Casanova,  
 Chun-Min Chang,  Yunqing Chen,  A. Chien,  K. D. Closser,  M. P. Coons,  
 S. Coriani,  S. Dasgupta,  A. L. Dempwolff,  M. Diedenhofen,  Hainam Do,  
 R. G. Edgar,  Po-Tung Fang,  S. Faraji,  S. Fatehi,  Qingguo Feng,  
 J. Fosso-Tande,  J. Gayvert,  Qinghui Ge,  A. Ghysels,  G. Gidofalvi,  
 J. Gomes,  J. Gonthier,  A. Gunina,  D. Hait,  M. W. D. Hanson-Heine,  
 P. H. P. Harbach,  A. W. Hauser,  M. F. Herbst,  J. E. Herr,  
 E. G. Hohenstein,  Z. C. Holden,  Kerwin Hui,  B. C. Huynh,  T.-C. Jagau,  
 Hyunjun Ji,  B. Kaduk,  K. Khistyaev,  Jaehoon Kim,  P. Klunzinger,  K. Koh,  
 D. Kosenkov,  L. Koulias,  T. Kowalczyk,  C. M. Krauter,  A. Kunitsa,  
 Ka Un Lao,  A. Laurent,  K. V. Lawler,  Joonho Lee,  D. Lefrancois,  
 S. Lehtola,  D. S. Levine,  Yi-Pei Li,  You-Sheng Lin,  Fenglai Liu,  
 Kuan-Yu Liu,  E. Livshits,  M. Loipersberger,  A. Luenser,  P. Manohar,  
 E. Mansoor,  S. F. Manzer,  Shan-Ping Mao,  Yuezhi Mao,  N. Mardirossian,  
 A. V. Marenich,  T. Markovich,  L. A. Martinez-Martinez,  S. A. Maurer,  
 N. J. Mayhall,  S. C. McKenzie,  J.-M. Mewes,  P. Morgante,  A. F. Morrison,  
 J. W. Mullinax,  K. Nanda,  T. S. Nguyen-Beck,  R. Olivares-Amaya,  
 K. J. Oosterbaan,  J. A. Parkhill,  S. K. Paul,  F. Pavosevic,  Zheng Pei,  
 T. M. Perrine,  F. Plasser,  P. Pokhilko,  S. Prager,  A. Prociuk,  
 E. Ramos,  B. Rana,  D. R. Rehn,  F. Rob,  M. Scheurer,  M. Schneider,  
 N. Sergueev,  S. M. Sharada,  S. Sharma,  D. W. Small,  T. Stauch,  
 C. J. Stein,  T. Stein,  Yu-Chuan Su,  S. P. Veccham,  Zhen Tao,  
 A. J. W. Thom,  A. Tkatchenko,  T. Tsuchimochi,  N. M. Tubman,  L. Vogt,  
 M. L. Vidal,  O. Vydrov,  M. A. Watson,  J. Wenzel,  M. de Wergifosse,  
 T. A. Wesolowski,  A. White,  J. Witte,  A. Yamada,  Jun Yang,  K. Yao,  
 S. Yeganeh,  S. R. Yost,  Zhi-Qiang You,  A. Zech,  Igor Ying Zhang,  
 Xing Zhang,  Yan Zhao,  Ying Zhu,  B. R. Brooks,  G. K. L. Chan,  
 C. J. Cramer,  M. S. Gordon,  W. J. Hehre,  A. Klamt,  M. W. Schmidt,  
 C. D. Sherrill,  D. G. Truhlar,  A. Aspuru-Guzik,  R. Baer,  A. T. Bell,  
 N. A. Besley,  Jeng-Da Chai,  A. E. DePrince, III,  R. A. DiStasio Jr.,  
 A. Dreuw,  B. D. Dunietz,  T. R. Furlani,  Chao-Ping Hsu,  Yousung Jung,  
 Jing Kong,  D. S. Lambrecht,  WanZhen Liang,  C. Ochsenfeld,  
 V. A. Rassolov,  L. V. Slipchenko,  J. E. Subotnik,  T. Van Voorhis,  
 J. M. Herbert,  A. I. Krylov,  P. M. W. Gill,  M. Head-Gordon

 Contributors to earlier versions of Q-Chem not listed above: 
 R. D. Adamson,  B. Austin,  J. Baker,  G. J. O. Beran,  K. Brandhorst,  
 S. T. Brown,  E. F. C. Byrd,  A. K. Chakraborty,  C.-L. Cheng,  
 Siu Hung Chien,  D. M. Chipman,  D. L. Crittenden,  H. Dachsel,  
 R. J. Doerksen,  A. D. Dutoi,  L. Fusti-Molnar,  W. A. Goddard III,  
 A. Golubeva-Zadorozhnaya,  S. R. Gwaltney,  G. Hawkins,  A. Heyden,  
 S. Hirata,  G. Kedziora,  F. J. Keil,  C. Kelley,  Jihan Kim,  R. A. King,  
 R. Z. Khaliullin,  P. P. Korambath,  W. Kurlancheek,  A. M. Lee,  M. S. Lee,  
 S. V. Levchenko,  Ching Yeh Lin,  D. Liotard,  R. C. Lochan,  I. Lotan,  
 P. E. Maslen,  N. Nair,  D. P. O'Neill,  D. Neuhauser,  E. Neuscamman,  
 C. M. Oana,  R. Olson,  B. Peters,  R. Peverati,  P. A. Pieniazek,  
 Y. M. Rhee,  J. Ritchie,  M. A. Rohrdanz,  E. Rosta,  N. J. Russ,  
 H. F. Schaefer III,  N. E. Schultz,  N. Shenvi,  A. C. Simmonett,  A. Sodt,  
 D. Stuck,  K. S. Thanthiriwatte,  V. Vanovschi,  Tao Wang,  A. Warshel,  
 C. F. Williams,  Q. Wu,  X. Xu,  W. Zhang

 Please cite Q-Chem as follows:
 Y. Shao et al., Mol. Phys. 113, 184-215 (2015)
 DOI: 10.1080/00268976.2014.952696

 Q-Chem 5.3.0 for Intel X86 EM64T Linux

 Parts of Q-Chem use Armadillo 9.800.1 (Horizon Scraper).
 http://arma.sourceforge.net/

 Q-Chem begins on Mon Jul 13 15:19:43 2020  

Host: centos77-c5
0

     Scratch files written to /tmp/29025.centos77-h1/qchem29318//
Processing $rem in /opt/qchem-5.3.0-intel2020u1//config/preferences:
Processing $rem in /home/shihchengli/.qchemrc:

Checking the input file for inconsistencies... 	...done.

--------------------------------------------------------------
User input:
--------------------------------------------------------------
$rem
   JOBTYPE  sp
   EXCHANGE   omegaB97X-D
   BASIS   6-311+G(2df,2pd)
   UNRESTRICTED   True
   max_scf_cycles   250
   geom_opt_max_cycles   1500
   basis2 6-31G*
   scf_algorithm rca_diis
   SYM_IGNORE  TRUE
   print_input   true
   geom_opt_dmax   80
   pop_mulliken false
   XC_GRID 000075000302
$end

$molecule
0 3
N       0.6633175461     1.0723129464     2.4196907986
O       0.5943696628     2.1461447849     1.9107751263
O       1.5838210608     0.3760331311     2.6810087062
N       -0.6284334803     -0.8167296107     3.5165063728
O       0.3804232831     -1.3146221300     3.8318736681
O       -0.6485069422     0.6318499882     2.7404452181
$end
--------------------------------------------------------------
 ----------------------------------------------------------------
             Standard Nuclear Orientation (Angstroms)
    I     Atom           X                Y                Z
 ----------------------------------------------------------------
    1      N       0.6633175461     1.0723129464     2.4196907986
    2      O       0.5943696628     2.1461447849     1.9107751263
    3      O       1.5838210608     0.3760331311     2.6810087062
    4      N      -0.6284334803    -0.8167296107     3.5165063728
    5      O       0.3804232831    -1.3146221300     3.8318736681
    6      O      -0.6485069422     0.6318499882     2.7404452181
 ----------------------------------------------------------------
 Nuclear Repulsion Energy =         237.69154060 hartrees
 There are       24 alpha and       22 beta electrons
 Requested basis set is 6-311+G(2df,2pd)
 There are 48 shells and 204 basis functions

 Total QAlloc Memory Limit   2000 MB
 Mega-Array Size       188 MB
 MEM_STATIC part       192 MB

                       Distance Matrix (Angstroms)
             N (  1)   O (  2)   O (  3)   N (  4)   O (  5)
   O (  2)  1.190321
   O (  3)  1.183393  2.169232
   N (  4)  2.537737  3.585003  2.648549
   O (  5)  2.787786  3.964001  2.372967  1.168394
   O (  6)  1.420484  2.127483  2.247724  1.643489  2.457370
 
 A cutoff of  1.0D-09 yielded   1049 shell pairs
 There are     19600 function pairs (     25811 Cartesian)
 Smallest overlap matrix eigenvalue = 4.50E-04

 Scale SEOQF with 1.000000e-01/1.000000e-01/1.000000e-01

 Standard Electronic Orientation quadrupole field applied
 Nucleus-field energy     =    -0.0000000360 hartrees
 Requested basis set is 6-31G(d)
 There are 24 shells and 84 basis functions
 A cutoff of  1.0D-09 yielded    275 shell pairs
 There are      3566 function pairs (      4098 Cartesian)
 Smallest overlap matrix eigenvalue = 4.68E-03
 Guess from superposition of atomic densities
 Warning:  Energy on first SCF cycle will be non-variational
 SAD guess density has 46.000000 electrons
 Long-range K will be added via erf
 Coulomb attenuation parameter = 0.2 bohr**(-1)
 An unrestricted hybrid HF-DFT SCF calculation will be
 performed using Relaxed Constraint Minimization + Pulay DIIS
 Exchange:     0.2220 Hartree-Fock + 1.0000 wB97X-D + LR-HF
 Correlation:  1.0000 wB97X-D
 Using Euler-Maclaurin-Lebedev (75,302) quadrature formula
 Dispersion:   Grimme D
 SCF converges when DIIS error is below 1.0E-04
 using 6 threads for integral computing
 -------------------------------------------------------
 OpenMP Integral computing Module                
 Release: version 1.0, May 2013, Q-Chem Inc. Pittsburgh 
 -------------------------------------------------------
 using 6 threads for integral computing
 -------------------------------------------------------
 OpenMP Integral computing Module                
 Release: version 1.0, May 2013, Q-Chem Inc. Pittsburgh 
 -------------------------------------------------------
 ---------------------------------------
  Cycle       Energy         DIIS Error
 ---------------------------------------
    1    -411.0469760368      8.85E-02
    2    -409.6476536743      1.95E-02
    3    -409.7518726685      4.43E-03
    4    -409.9004224243      4.63E-03
    5    -409.9066302306      6.63E-04 Done RCA. Switching to DIIS
    6    -409.9151780821      5.90E-04
    7    -409.9156894080      2.16E-04
    8    -409.9158457714      8.39E-05 Convergence criterion met
 ---------------------------------------
 <S^2> = 2.0149
 SCF time:  CPU 14.96 s  wall 2.51 s
 SCF   energy in the small basis set = -409.91584577
 Total energy in the small basis set = -409.91584577
 ----------------------------------------------------
  Cycle       Energy    
 ----------------------------------------------------
    1     -41.7680226011     -4.18E+01
 Long-range K will be added via erf
 Coulomb attenuation parameter = 0.2 bohr**(-1)
 An unrestricted hybrid HF-DFT SCF calculation will be
 performed using Relaxed Constraint Minimization + Pulay DIIS
 Exchange:     0.2220 Hartree-Fock + 1.0000 wB97X-D + LR-HF
 Correlation:  1.0000 wB97X-D
 Using Euler-Maclaurin-Lebedev (75,302) quadrature formula
 Dispersion:   Grimme D
 SCF converges when DIIS error is below 1.0E-05
 Basis2 calculation detected. Using small basis as guess for larger.
 SCFMinFind is unable to tell whether the solution found is close.
 Resetting ReadMinima to 0 and attempting to follow guess.
 SCFMinFind following SCF Guess.
 using 6 threads for integral computing
 -------------------------------------------------------
 OpenMP Integral computing Module                
 Release: version 1.0, May 2013, Q-Chem Inc. Pittsburgh 
 -------------------------------------------------------
 using 6 threads for integral computing
 -------------------------------------------------------
 OpenMP Integral computing Module                
 Release: version 1.0, May 2013, Q-Chem Inc. Pittsburgh 
 -------------------------------------------------------
 ---------------------------------------
  Cycle       Energy         DIIS Error
 ---------------------------------------
    1    -410.0083644365      7.98E-03
    2    -410.0229707284      3.80E-03
    3    -410.0410675060      9.67E-04 Done RCA. Switching to DIIS
    4    -410.0665483474      1.01E-03
    5    -410.0699302312      1.87E-04
    6    -410.0702392278      6.63E-05
    7    -410.0703989084      4.50E-05
    8    -410.0704584041      2.54E-05
    9    -410.0704941267      1.14E-05
   10    -410.0705012632      5.19E-06 Convergence criterion met
 ---------------------------------------
 <S^2> = 2.0180
 SCF time:  CPU 64.04 s  wall 10.70 s
 SCF   energy in the final basis set = -410.07050126
 Total energy in the final basis set = -410.07050126
 
 --------------------------------------------------------------
 
                    Orbital Energies (a.u.)
 --------------------------------------------------------------
 
 Alpha MOs
 -- Occupied --
-19.4097 -19.4029 -19.3510 -19.3494 -14.7761 -14.6136  -1.4478  -1.3715
 -1.2629  -1.2062  -0.8750  -0.7807  -0.7214  -0.7119  -0.6858  -0.6603
 -0.6522  -0.6130  -0.5057  -0.5039  -0.4672  -0.4530  -0.4413  -0.3308
 -- Virtual --
 -0.0241   0.0138   0.0759   0.1054   0.1285   0.1363   0.1429   0.1689
  0.1755   0.1942   0.2224   0.2353   0.2444   0.2692   0.2821   0.2981
  0.3098   0.3203   0.3398   0.3507   0.3560   0.3582   0.3762   0.3982
  0.4259   0.4415   0.4516   0.4850   0.4957   0.5310   0.7424   0.7507
  0.7911   0.8262   0.8549   0.8907   0.9284   0.9401   0.9507   0.9919
  1.0050   1.0272   1.0669   1.0834   1.0882   1.0970   1.1163   1.1270
  1.1347   1.1561   1.1658   1.2047   1.2266   1.2467   1.3094   1.3389
  1.4526   1.4911   1.5140   1.5350   1.5546   1.5725   1.5887   1.6146
  1.6396   1.7300   1.7700   1.8055   1.8392   1.8643   1.9267   1.9701
  2.0091   2.1050   2.1949   2.2886   2.3407   2.3671   2.4042   2.4971
  2.5389   2.5814   2.7407   2.8238   3.4999   3.5341   3.5718   3.6138
  3.6270   3.6503   3.6748   3.6990   3.7504   3.7616   3.7986   3.8645
  3.9618   3.9788   4.0173   4.0864   4.1614   4.4289   4.4684   4.4858
  4.4987   4.6053   4.6505   4.6708   4.6963   4.7286   4.7371   4.7547
  4.8129   4.9478   4.9793   4.9994   5.0038   5.0248   5.0252   5.0369
  5.0732   5.0865   5.0971   5.1117   5.1287   5.1550   5.1764   5.1922
  5.2661   5.3133   5.3200   5.3493   5.4003   5.4447   5.4691   5.4918
  5.5513   5.5815   5.6182   5.6670   5.8037   5.8637   5.9852   6.1052
  6.3145   6.5328   6.6510   6.6572   6.6970   6.7248   6.7498   6.7688
  6.8016   6.8315   6.9048   6.9267   6.9732   6.9902   7.0976   7.1144
  7.1621   7.1659   7.2127   7.2708   7.3236   7.3528   7.4374   7.5684
  7.6552   7.7196   7.8299   7.8551   7.9227   8.2931  35.9229  36.1230
 49.9876  50.1705  50.2386  50.2633
 
 Beta MOs
 -- Occupied --
-19.3972 -19.3837 -19.3492 -19.3486 -14.7765 -14.5955  -1.4431  -1.3320
 -1.2593  -1.1749  -0.8294  -0.7536  -0.7184  -0.6963  -0.6727  -0.6149
 -0.5716  -0.5591  -0.4803  -0.4756  -0.4626  -0.4432
 -- Virtual --
 -0.1534  -0.0268   0.0108   0.0651   0.0869   0.1117   0.1331   0.1389
  0.1474   0.1698   0.1832   0.2000   0.2239   0.2367   0.2491   0.2720
  0.2831   0.2997   0.3168   0.3211   0.3413   0.3516   0.3580   0.3608
  0.3800   0.4040   0.4360   0.4430   0.4563   0.4888   0.5131   0.5390
  0.7529   0.7588   0.8218   0.8417   0.8609   0.8930   0.9384   0.9502
  0.9607   1.0002   1.0091   1.0409   1.0749   1.0911   1.0957   1.1102
  1.1289   1.1313   1.1517   1.1660   1.1821   1.2149   1.2395   1.2583
  1.3165   1.3590   1.4635   1.5089   1.5294   1.5393   1.5616   1.5863
  1.6017   1.6279   1.6532   1.7393   1.7830   1.8104   1.8580   1.8826
  1.9305   1.9879   2.0220   2.1232   2.2025   2.3026   2.3596   2.3718
  2.4164   2.5136   2.5418   2.5847   2.7516   2.8271   3.5261   3.5677
  3.5922   3.6271   3.6408   3.6529   3.6850   3.7202   3.7664   3.8211
  3.8262   3.8807   3.9881   3.9975   4.0233   4.0957   4.1743   4.4323
  4.4712   4.4890   4.5031   4.6376   4.6542   4.7068   4.7255   4.7445
  4.7743   4.8041   4.8455   4.9922   4.9995   5.0146   5.0322   5.0395
  5.0434   5.0582   5.0819   5.0931   5.1199   5.1298   5.1628   5.1675
  5.1911   5.2163   5.2850   5.3394   5.3458   5.3648   5.4031   5.4560
  5.4889   5.5197   5.5600   5.6130   5.6431   5.6746   5.8104   5.8708
  6.0005   6.1407   6.3263   6.5349   6.6734   6.6963   6.7416   6.7621
  6.7814   6.7854   6.8235   6.8422   6.9074   6.9624   6.9951   7.0095
  7.1216   7.1310   7.1667   7.1986   7.2398   7.2764   7.3377   7.3728
  7.4619   7.5771   7.6851   7.7432   7.8460   7.8692   7.9326   8.2958
 35.9444  36.1229  50.0007  50.1883  50.2410  50.2639
 --------------------------------------------------------------
 
 -----------------------------------------------------------------
                    Cartesian Multipole Moments
 -----------------------------------------------------------------
    Charge (ESU x 10^10)
                 0.0000
    Dipole Moment (Debye)
         X      -0.4345      Y      -0.6314      Z       0.3518
       Tot       0.8433
    Quadrupole Moments (Debye-Ang)
        XX     -33.8391     XY       0.5488     YY     -33.6606
        XZ      -1.3443     YZ      -0.4251     ZZ     -29.2215
    Octopole Moments (Debye-Ang^2)
       XXX     -33.6884    XXY     -12.4785    XYY     -11.3360
       YYY     -40.3646    XXZ     -95.5731    XYZ       3.1303
       YYZ     -91.6795    XZZ     -13.9627    YZZ      -9.4070
       ZZZ    -258.7450
    Hexadecapole Moments (Debye-Ang^3)
      XXXX    -165.6424   XXXY     -37.2676   XXYY     -77.5603
      XYYY     -36.4038   YYYY    -311.2771   XXXZ     -77.1252
      XXYZ     -11.4518   XYYZ     -24.8678   YYYZ     -37.8867
      XXZZ    -313.9626   XYZZ       2.0412   YYZZ    -318.2271
      XZZZ     -80.0111   YZZZ     -14.5038   ZZZZ   -1595.3240
 -----------------------------------------------------------------
Archival summary:
1\1\centos77-c5\SP\ProcedureUnspecified\BasisUnspecified\42(3)\shihchen\MonJul1315:19:592020MonJul1315:19:592020\0\\#,ProcedureUnspecified,BasisUnspecified,\\0,3\N\O,1,1.18339\O,1,1.19032,2,132.087\O,1,1.42048,2,119.081,3,-179.712,0\N,4,1.64349,1,111.633,2,2.58945,0\O,5,1.16839,4,120.904,1,5.69492,0\\\@

 Total job time:  15.76s(wall), 83.47s(cpu) 
 Mon Jul 13 15:19:59 2020

        *************************************************************
        *                                                           *
        *  Thank you very much for using Q-Chem.  Have a nice day.  *
        *                                                           *
        *************************************************************


