                  Welcome to Q-Chem
     A Quantum Leap Into The Future Of Chemistry


 Q-Chem 5.3 (devel), Q-Chem, Inc., Pleasanton, CA (2020)

 Yihan Shao,  Zhengting Gan,  E. Epifanovsky,  A. T. B. Gilbert,  M. Wormit,  
 J. Kussmann,  A. W. Lange,  A. Behn,  Jia Deng,  Xintian Feng,  D. Ghosh,  
 M. Goldey,  P. R. Horn,  L. D. Jacobson,  I. Kaliman,  T. Kus,  A. Landau,  
 Jie Liu,  E. I. Proynov,  R. M. Richard,  R. P. Steele,  E. J. Sundstrom,  
 H. L. Woodcock III,  P. M. Zimmerman,  D. Zuev,  B. Alam,  B. Albrecht,  
 E. Alguire,  S. A. Baeppler,  D. Barton,  Z. Benda,  Y. A. Bernard,  
 E. J. Berquist,  K. B. Bravaya,  H. Burton,  K. Carter-Fenk,  D. Casanova,  
 Chun-Min Chang,  Yunqing Chen,  A. Chien,  K. D. Closser,  M. P. Coons,  
 S. Coriani,  S. Dasgupta,  A. L. Dempwolff,  M. Diedenhofen,  Hainam Do,  
 R. G. Edgar,  Po-Tung Fang,  S. Faraji,  S. Fatehi,  Qingguo Feng,  
 J. Fosso-Tande,  J. Gayvert,  Qinghui Ge,  A. Ghysels,  G. Gidofalvi,  
 J. Gomes,  J. Gonthier,  A. Gunina,  D. Hait,  M. W. D. Hanson-Heine,  
 P. H. P. Harbach,  A. W. Hauser,  M. F. Herbst,  J. E. Herr,  
 E. G. Hohenstein,  Z. C. Holden,  Kerwin Hui,  B. C. Huynh,  T.-C. Jagau,  
 Hyunjun Ji,  B. Kaduk,  K. Khistyaev,  Jaehoon Kim,  P. Klunzinger,  K. Koh,  
 D. Kosenkov,  L. Koulias,  T. Kowalczyk,  C. M. Krauter,  A. Kunitsa,  
 Ka Un Lao,  A. Laurent,  K. V. Lawler,  Joonho Lee,  D. Lefrancois,  
 S. Lehtola,  D. S. Levine,  Yi-Pei Li,  You-Sheng Lin,  Fenglai Liu,  
 Kuan-Yu Liu,  E. Livshits,  M. Loipersberger,  A. Luenser,  P. Manohar,  
 E. Mansoor,  S. F. Manzer,  Shan-Ping Mao,  Yuezhi Mao,  N. Mardirossian,  
 A. V. Marenich,  T. Markovich,  L. A. Martinez-Martinez,  S. A. Maurer,  
 N. J. Mayhall,  S. C. McKenzie,  J.-M. Mewes,  P. Morgante,  A. F. Morrison,  
 J. W. Mullinax,  K. Nanda,  T. S. Nguyen-Beck,  R. Olivares-Amaya,  
 K. J. Oosterbaan,  J. A. Parkhill,  S. K. Paul,  F. Pavosevic,  Zheng Pei,  
 T. M. Perrine,  F. Plasser,  P. Pokhilko,  S. Prager,  A. Prociuk,  
 E. Ramos,  B. Rana,  D. R. Rehn,  F. Rob,  M. Scheurer,  M. Schneider,  
 N. Sergueev,  S. M. Sharada,  S. Sharma,  D. W. Small,  T. Stauch,  
 C. J. Stein,  T. Stein,  Yu-Chuan Su,  S. P. Veccham,  Zhen Tao,  
 A. J. W. Thom,  A. Tkatchenko,  T. Tsuchimochi,  N. M. Tubman,  L. Vogt,  
 M. L. Vidal,  O. Vydrov,  M. A. Watson,  J. Wenzel,  M. de Wergifosse,  
 T. A. Wesolowski,  A. White,  J. Witte,  A. Yamada,  Jun Yang,  K. Yao,  
 S. Yeganeh,  S. R. Yost,  Zhi-Qiang You,  A. Zech,  Igor Ying Zhang,  
 Xing Zhang,  Yan Zhao,  Ying Zhu,  B. R. Brooks,  G. K. L. Chan,  
 C. J. Cramer,  M. S. Gordon,  W. J. Hehre,  A. Klamt,  M. W. Schmidt,  
 C. D. Sherrill,  D. G. Truhlar,  A. Aspuru-Guzik,  R. Baer,  A. T. Bell,  
 N. A. Besley,  Jeng-Da Chai,  A. E. DePrince, III,  R. A. DiStasio Jr.,  
 A. Dreuw,  B. D. Dunietz,  T. R. Furlani,  Chao-Ping Hsu,  Yousung Jung,  
 Jing Kong,  D. S. Lambrecht,  WanZhen Liang,  C. Ochsenfeld,  
 V. A. Rassolov,  L. V. Slipchenko,  J. E. Subotnik,  T. Van Voorhis,  
 J. M. Herbert,  A. I. Krylov,  P. M. W. Gill,  M. Head-Gordon

 Contributors to earlier versions of Q-Chem not listed above: 
 R. D. Adamson,  B. Austin,  J. Baker,  G. J. O. Beran,  K. Brandhorst,  
 S. T. Brown,  E. F. C. Byrd,  A. K. Chakraborty,  C.-L. Cheng,  
 Siu Hung Chien,  D. M. Chipman,  D. L. Crittenden,  H. Dachsel,  
 R. J. Doerksen,  A. D. Dutoi,  L. Fusti-Molnar,  W. A. Goddard III,  
 A. Golubeva-Zadorozhnaya,  S. R. Gwaltney,  G. Hawkins,  A. Heyden,  
 S. Hirata,  G. Kedziora,  F. J. Keil,  C. Kelley,  Jihan Kim,  R. A. King,  
 R. Z. Khaliullin,  P. P. Korambath,  W. Kurlancheek,  A. M. Lee,  M. S. Lee,  
 S. V. Levchenko,  Ching Yeh Lin,  D. Liotard,  R. C. Lochan,  I. Lotan,  
 P. E. Maslen,  N. Nair,  D. P. O'Neill,  D. Neuhauser,  E. Neuscamman,  
 C. M. Oana,  R. Olson,  B. Peters,  R. Peverati,  P. A. Pieniazek,  
 Y. M. Rhee,  J. Ritchie,  M. A. Rohrdanz,  E. Rosta,  N. J. Russ,  
 H. F. Schaefer III,  N. E. Schultz,  N. Shenvi,  A. C. Simmonett,  A. Sodt,  
 D. Stuck,  K. S. Thanthiriwatte,  V. Vanovschi,  Tao Wang,  A. Warshel,  
 C. F. Williams,  Q. Wu,  X. Xu,  W. Zhang

 Please cite Q-Chem as follows:
 Y. Shao et al., Mol. Phys. 113, 184-215 (2015)
 DOI: 10.1080/00268976.2014.952696

 Q-Chem 5.3.0 for Intel X86 EM64T Linux

 Parts of Q-Chem use Armadillo 9.800.1 (Horizon Scraper).
 http://arma.sourceforge.net/

 Q-Chem begins on Mon Jul 13 15:06:38 2020  

Host: centos77-c5
0

     Scratch files written to /tmp/29025.centos77-h1/qchem50686//
Processing $rem in /opt/qchem-5.3.0-intel2020u1//config/preferences:
Processing $rem in /home/shihchengli/.qchemrc:

Checking the input file for inconsistencies... 	...done.

--------------------------------------------------------------
User input:
--------------------------------------------------------------
$rem
   JOBTYPE  sp
   EXCHANGE   omegaB97X-D
   BASIS   6-311+G(2df,2pd)
   UNRESTRICTED   True
   max_scf_cycles   250
   geom_opt_max_cycles   1500
   basis2 6-31G*
   scf_algorithm rca_diis
   SYM_IGNORE  TRUE
   print_input   true
   geom_opt_dmax   80
   pop_mulliken false
   XC_GRID 000075000302
$end

$molecule
0 3
N       0.9119695037     1.1011018008     2.4775864276
O       0.0450401028     1.5704315679     3.1446896978
O       1.8104851886     1.5922582661     1.8844133997
N       -0.2216123724     -0.8346762778     3.6641201445
O       -1.3592779294     -1.0232813485     3.4762620373
O       0.7583866368     -0.3108448987     2.4532281830
$end
--------------------------------------------------------------
 ----------------------------------------------------------------
             Standard Nuclear Orientation (Angstroms)
    I     Atom           X                Y                Z
 ----------------------------------------------------------------
    1      N       0.9119695037     1.1011018008     2.4775864276
    2      O       0.0450401028     1.5704315679     3.1446896978
    3      O       1.8104851886     1.5922582661     1.8844133997
    4      N      -0.2216123724    -0.8346762778     3.6641201445
    5      O      -1.3592779294    -1.0232813485     3.4762620373
    6      O       0.7583866368    -0.3108448987     2.4532281830
 ----------------------------------------------------------------
 Nuclear Repulsion Energy =         233.09275978 hartrees
 There are       24 alpha and       22 beta electrons
 Requested basis set is 6-311+G(2df,2pd)
 There are 48 shells and 204 basis functions

 Total QAlloc Memory Limit   2000 MB
 Mega-Array Size       188 MB
 MEM_STATIC part       192 MB

                       Distance Matrix (Angstroms)
             N (  1)   O (  2)   O (  3)   N (  4)   O (  5)
   O (  2)  1.190321
   O (  3)  1.183393  2.169232
   N (  4)  2.537737  2.474966  3.631362
   O (  5)  3.266332  2.968063  4.407088  1.168394
   O (  6)  1.420484  2.127483  2.247724  1.643489  2.457370
 
 A cutoff of  1.0D-09 yielded   1033 shell pairs
 There are     19287 function pairs (     25343 Cartesian)
 Smallest overlap matrix eigenvalue = 6.16E-04

 Scale SEOQF with 1.000000e-01/1.000000e-01/1.000000e-01

 Standard Electronic Orientation quadrupole field applied
 Nucleus-field energy     =    -0.0000000354 hartrees
 Requested basis set is 6-31G(d)
 There are 24 shells and 84 basis functions
 A cutoff of  1.0D-09 yielded    267 shell pairs
 There are      3502 function pairs (      4026 Cartesian)
 Smallest overlap matrix eigenvalue = 4.72E-03
 Guess from superposition of atomic densities
 Warning:  Energy on first SCF cycle will be non-variational
 SAD guess density has 46.000000 electrons
 Long-range K will be added via erf
 Coulomb attenuation parameter = 0.2 bohr**(-1)
 An unrestricted hybrid HF-DFT SCF calculation will be
 performed using Relaxed Constraint Minimization + Pulay DIIS
 Exchange:     0.2220 Hartree-Fock + 1.0000 wB97X-D + LR-HF
 Correlation:  1.0000 wB97X-D
 Using Euler-Maclaurin-Lebedev (75,302) quadrature formula
 Dispersion:   Grimme D
 SCF converges when DIIS error is below 1.0E-04
 using 6 threads for integral computing
 -------------------------------------------------------
 OpenMP Integral computing Module                
 Release: version 1.0, May 2013, Q-Chem Inc. Pittsburgh 
 -------------------------------------------------------
 using 6 threads for integral computing
 -------------------------------------------------------
 OpenMP Integral computing Module                
 Release: version 1.0, May 2013, Q-Chem Inc. Pittsburgh 
 -------------------------------------------------------
 ---------------------------------------
  Cycle       Energy         DIIS Error
 ---------------------------------------
    1    -411.0393082033      8.85E-02
    2    -409.6464595746      1.96E-02
    3    -409.7517171439      4.40E-03
    4    -409.9016804160      4.59E-03
    5    -409.9076575774      6.25E-04 Done RCA. Switching to DIIS
    6    -409.9156201171      5.16E-04
    7    -409.9159926453      1.04E-04
    8    -409.9160623185      6.25E-05 Convergence criterion met
 ---------------------------------------
 <S^2> = 2.0164
 SCF time:  CPU 14.52 s  wall 2.43 s
 SCF   energy in the small basis set = -409.91606232
 Total energy in the small basis set = -409.91606232
 ----------------------------------------------------
  Cycle       Energy    
 ----------------------------------------------------
    1     -41.7650987294     -4.18E+01
 Long-range K will be added via erf
 Coulomb attenuation parameter = 0.2 bohr**(-1)
 An unrestricted hybrid HF-DFT SCF calculation will be
 performed using Relaxed Constraint Minimization + Pulay DIIS
 Exchange:     0.2220 Hartree-Fock + 1.0000 wB97X-D + LR-HF
 Correlation:  1.0000 wB97X-D
 Using Euler-Maclaurin-Lebedev (75,302) quadrature formula
 Dispersion:   Grimme D
 SCF converges when DIIS error is below 1.0E-05
 Basis2 calculation detected. Using small basis as guess for larger.
 SCFMinFind is unable to tell whether the solution found is close.
 Resetting ReadMinima to 0 and attempting to follow guess.
 SCFMinFind following SCF Guess.
 using 6 threads for integral computing
 -------------------------------------------------------
 OpenMP Integral computing Module                
 Release: version 1.0, May 2013, Q-Chem Inc. Pittsburgh 
 -------------------------------------------------------
 using 6 threads for integral computing
 -------------------------------------------------------
 OpenMP Integral computing Module                
 Release: version 1.0, May 2013, Q-Chem Inc. Pittsburgh 
 -------------------------------------------------------
 ---------------------------------------
  Cycle       Energy         DIIS Error
 ---------------------------------------
    1    -410.0015515449      8.05E-03
    2    -410.0121980695      4.23E-03
    3    -410.0344617136      1.11E-03
    4    -410.0662036153      1.15E-03
    5    -410.0681891210      1.68E-04 Done RCA. Switching to DIIS
    6    -410.0710971851      1.61E-04
    7    -410.0713340739      5.51E-05
    8    -410.0714497016      2.89E-05
    9    -410.0715006836      1.39E-05
   10    -410.0715218366      6.49E-06 Convergence criterion met
 ---------------------------------------
 <S^2> = 2.0190
 SCF time:  CPU 66.62 s  wall 11.14 s
 SCF   energy in the final basis set = -410.07152184
 Total energy in the final basis set = -410.07152184
 
 --------------------------------------------------------------
 
                    Orbital Energies (a.u.)
 --------------------------------------------------------------
 
 Alpha MOs
 -- Occupied --
-19.4089 -19.4025 -19.3556 -19.3337 -14.7704 -14.6222  -1.4426  -1.3707
 -1.2593  -1.2034  -0.8767  -0.7750  -0.7184  -0.7168  -0.6812  -0.6597
 -0.6348  -0.6315  -0.5042  -0.4898  -0.4619  -0.4581  -0.4381  -0.3403
 -- Virtual --
 -0.0222   0.0051   0.0795   0.1165   0.1253   0.1367   0.1385   0.1671
  0.1772   0.1844   0.2295   0.2409   0.2564   0.2648   0.2787   0.2946
  0.3063   0.3321   0.3377   0.3475   0.3517   0.3616   0.3672   0.3894
  0.4025   0.4309   0.4452   0.4520   0.4979   0.5293   0.7531   0.7788
  0.8059   0.8301   0.8538   0.8692   0.9293   0.9463   0.9737   1.0032
  1.0191   1.0356   1.0585   1.0640   1.0824   1.0984   1.1182   1.1330
  1.1474   1.1620   1.1722   1.1886   1.2291   1.2360   1.2931   1.3159
  1.4286   1.4548   1.5420   1.5619   1.5722   1.5930   1.6008   1.6018
  1.6717   1.6857   1.6966   1.7563   1.8412   1.9202   1.9354   1.9512
  1.9935   2.1318   2.2119   2.2870   2.3451   2.3505   2.4553   2.5119
  2.5309   2.5628   2.6974   2.8228   3.5034   3.5390   3.5441   3.6147
  3.6560   3.6635   3.7021   3.7230   3.7338   3.7673   3.7915   3.8928
  3.9551   4.0011   4.0208   4.0493   4.1043   4.4203   4.4503   4.4809
  4.5064   4.6010   4.6420   4.6780   4.6903   4.7238   4.7385   4.7729
  4.8332   4.9073   4.9916   5.0094   5.0166   5.0316   5.0420   5.0510
  5.0651   5.0777   5.0992   5.1105   5.1200   5.1293   5.1677   5.1844
  5.2220   5.2700   5.3204   5.3862   5.4054   5.4133   5.4558   5.5067
  5.5568   5.5766   5.6406   5.6668   5.8159   5.8785   6.0254   6.1141
  6.2964   6.5366   6.6504   6.6705   6.6847   6.7285   6.7374   6.7686
  6.8118   6.8355   6.8837   6.9002   6.9611   7.0281   7.0883   7.1343
  7.1624   7.1801   7.1969   7.2667   7.3182   7.3756   7.4822   7.5640
  7.6497   7.6955   7.7898   7.8861   7.9062   8.2996  35.9123  36.1249
 49.9984  50.1643  50.2480  50.2624
 
 Beta MOs
 -- Occupied --
-19.3953 -19.3845 -19.3541 -19.3338 -14.7702 -14.6042  -1.4380  -1.3326
 -1.2558  -1.1702  -0.8331  -0.7420  -0.7132  -0.7043  -0.6704  -0.6068
 -0.5835  -0.5593  -0.4814  -0.4680  -0.4592  -0.4356
 -- Virtual --
 -0.1571  -0.0189  -0.0082   0.0552   0.0891   0.1214   0.1370   0.1414
  0.1460   0.1706   0.1805   0.1885   0.2314   0.2457   0.2586   0.2688
  0.2806   0.2971   0.3121   0.3341   0.3392   0.3496   0.3529   0.3644
  0.3699   0.3964   0.4084   0.4367   0.4479   0.4609   0.5135   0.5332
  0.7602   0.8001   0.8143   0.8473   0.8630   0.8776   0.9370   0.9508
  0.9875   1.0113   1.0267   1.0482   1.0679   1.0795   1.0883   1.1167
  1.1259   1.1432   1.1533   1.1663   1.1932   1.2005   1.2420   1.2466
  1.3093   1.3319   1.4368   1.4695   1.5461   1.5706   1.5790   1.6019
  1.6189   1.6207   1.6839   1.7014   1.7181   1.7631   1.8503   1.9258
  1.9438   1.9689   2.0090   2.1436   2.2275   2.2974   2.3594   2.3610
  2.4708   2.5247   2.5344   2.5678   2.7061   2.8263   3.5255   3.5637
  3.5759   3.6312   3.6637   3.6788   3.7121   3.7326   3.7436   3.7962
  3.8601   3.9143   3.9872   4.0131   4.0235   4.0659   4.1174   4.4230
  4.4572   4.4843   4.5081   4.6257   4.6635   4.7023   4.7247   4.7435
  4.7657   4.8042   4.8791   4.9562   5.0104   5.0323   5.0452   5.0526
  5.0574   5.0604   5.0817   5.0880   5.1095   5.1220   5.1440   5.1588
  5.1954   5.2142   5.2288   5.2949   5.3417   5.3921   5.4185   5.4332
  5.4652   5.5284   5.5777   5.5915   5.6565   5.6886   5.8217   5.8875
  6.0410   6.1544   6.3037   6.5387   6.6872   6.6944   6.7138   6.7734
  6.7941   6.7993   6.8174   6.8416   6.8874   6.9063   6.9938   7.0387
  7.1019   7.1582   7.1694   7.2110   7.2248   7.2763   7.3331   7.3955
  7.5053   7.5702   7.6798   7.7250   7.7966   7.8912   7.9249   8.3013
 35.9340  36.1251  50.0129  50.1810  50.2491  50.2628
 --------------------------------------------------------------
 
 -----------------------------------------------------------------
                    Cartesian Multipole Moments
 -----------------------------------------------------------------
    Charge (ESU x 10^10)
                -0.0000
    Dipole Moment (Debye)
         X      -0.1496      Y      -0.8540      Z       0.2133
       Tot       0.8928
    Quadrupole Moments (Debye-Ang)
        XX     -33.4919     XY      -0.4052     YY     -34.1402
        XZ       1.1524     YZ      -2.9435     ZZ     -29.7776
    Octopole Moments (Debye-Ang^2)
       XXX     -34.1522    XXY     -12.3121    XYY     -12.3354
       YYY     -39.7717    XXZ     -92.4230    XYZ       1.0149
       YYZ     -96.8033    XZZ      -4.2035    YZZ     -21.8619
       ZZZ    -258.6992
    Hexadecapole Moments (Debye-Ang^3)
      XXXX    -238.9789   XXXY     -88.1044   XXYY     -90.1305
      XYYY     -87.2663   YYYY    -292.1738   XXXZ     -37.0793
      XXYZ     -16.3766   XYYZ     -14.1883   YYYZ     -71.2622
      XXZZ    -311.7925   XYZZ     -19.6216   YYZZ    -337.3452
      XZZZ     -13.9517   YZZZ     -94.3216   ZZZZ   -1575.0395
 -----------------------------------------------------------------
Archival summary:
1\1\centos77-c5\SP\ProcedureUnspecified\BasisUnspecified\42(3)\shihchen\MonJul1315:06:542020MonJul1315:06:542020\0\\#,ProcedureUnspecified,BasisUnspecified,\\0,3\N\O,1,1.18339\O,1,1.19032,2,132.087\O,1,1.42048,2,119.081,3,-179.712,0\N,4,1.64349,1,111.633,2,162.589,0\O,5,1.16839,4,120.904,1,95.6949,0\\\@

 Total job time:  15.99s(wall), 85.49s(cpu) 
 Mon Jul 13 15:06:54 2020

        *************************************************************
        *                                                           *
        *  Thank you very much for using Q-Chem.  Have a nice day.  *
        *                                                           *
        *************************************************************


