                  Welcome to Q-Chem
     A Quantum Leap Into The Future Of Chemistry


 Q-Chem 5.3 (devel), Q-Chem, Inc., Pleasanton, CA (2020)

 Yihan Shao,  Zhengting Gan,  E. Epifanovsky,  A. T. B. Gilbert,  M. Wormit,  
 J. Kussmann,  A. W. Lange,  A. Behn,  Jia Deng,  Xintian Feng,  D. Ghosh,  
 M. Goldey,  P. R. Horn,  L. D. Jacobson,  I. Kaliman,  T. Kus,  A. Landau,  
 Jie Liu,  E. I. Proynov,  R. M. Richard,  R. P. Steele,  E. J. Sundstrom,  
 H. L. Woodcock III,  P. M. Zimmerman,  D. Zuev,  B. Alam,  B. Albrecht,  
 E. Alguire,  S. A. Baeppler,  D. Barton,  Z. Benda,  Y. A. Bernard,  
 E. J. Berquist,  K. B. Bravaya,  H. Burton,  K. Carter-Fenk,  D. Casanova,  
 Chun-Min Chang,  Yunqing Chen,  A. Chien,  K. D. Closser,  M. P. Coons,  
 S. Coriani,  S. Dasgupta,  A. L. Dempwolff,  M. Diedenhofen,  Hainam Do,  
 R. G. Edgar,  Po-Tung Fang,  S. Faraji,  S. Fatehi,  Qingguo Feng,  
 J. Fosso-Tande,  J. Gayvert,  Qinghui Ge,  A. Ghysels,  G. Gidofalvi,  
 J. Gomes,  J. Gonthier,  A. Gunina,  D. Hait,  M. W. D. Hanson-Heine,  
 P. H. P. Harbach,  A. W. Hauser,  M. F. Herbst,  J. E. Herr,  
 E. G. Hohenstein,  Z. C. Holden,  Kerwin Hui,  B. C. Huynh,  T.-C. Jagau,  
 Hyunjun Ji,  B. Kaduk,  K. Khistyaev,  Jaehoon Kim,  P. Klunzinger,  K. Koh,  
 D. Kosenkov,  L. Koulias,  T. Kowalczyk,  C. M. Krauter,  A. Kunitsa,  
 Ka Un Lao,  A. Laurent,  K. V. Lawler,  Joonho Lee,  D. Lefrancois,  
 S. Lehtola,  D. S. Levine,  Yi-Pei Li,  You-Sheng Lin,  Fenglai Liu,  
 Kuan-Yu Liu,  E. Livshits,  M. Loipersberger,  A. Luenser,  P. Manohar,  
 E. Mansoor,  S. F. Manzer,  Shan-Ping Mao,  Yuezhi Mao,  N. Mardirossian,  
 A. V. Marenich,  T. Markovich,  L. A. Martinez-Martinez,  S. A. Maurer,  
 N. J. Mayhall,  S. C. McKenzie,  J.-M. Mewes,  P. Morgante,  A. F. Morrison,  
 J. W. Mullinax,  K. Nanda,  T. S. Nguyen-Beck,  R. Olivares-Amaya,  
 K. J. Oosterbaan,  J. A. Parkhill,  S. K. Paul,  F. Pavosevic,  Zheng Pei,  
 T. M. Perrine,  F. Plasser,  P. Pokhilko,  S. Prager,  A. Prociuk,  
 E. Ramos,  B. Rana,  D. R. Rehn,  F. Rob,  M. Scheurer,  M. Schneider,  
 N. Sergueev,  S. M. Sharada,  S. Sharma,  D. W. Small,  T. Stauch,  
 C. J. Stein,  T. Stein,  Yu-Chuan Su,  S. P. Veccham,  Zhen Tao,  
 A. J. W. Thom,  A. Tkatchenko,  T. Tsuchimochi,  N. M. Tubman,  L. Vogt,  
 M. L. Vidal,  O. Vydrov,  M. A. Watson,  J. Wenzel,  M. de Wergifosse,  
 T. A. Wesolowski,  A. White,  J. Witte,  A. Yamada,  Jun Yang,  K. Yao,  
 S. Yeganeh,  S. R. Yost,  Zhi-Qiang You,  A. Zech,  Igor Ying Zhang,  
 Xing Zhang,  Yan Zhao,  Ying Zhu,  B. R. Brooks,  G. K. L. Chan,  
 C. J. Cramer,  M. S. Gordon,  W. J. Hehre,  A. Klamt,  M. W. Schmidt,  
 C. D. Sherrill,  D. G. Truhlar,  A. Aspuru-Guzik,  R. Baer,  A. T. Bell,  
 N. A. Besley,  Jeng-Da Chai,  A. E. DePrince, III,  R. A. DiStasio Jr.,  
 A. Dreuw,  B. D. Dunietz,  T. R. Furlani,  Chao-Ping Hsu,  Yousung Jung,  
 Jing Kong,  D. S. Lambrecht,  WanZhen Liang,  C. Ochsenfeld,  
 V. A. Rassolov,  L. V. Slipchenko,  J. E. Subotnik,  T. Van Voorhis,  
 J. M. Herbert,  A. I. Krylov,  P. M. W. Gill,  M. Head-Gordon

 Contributors to earlier versions of Q-Chem not listed above: 
 R. D. Adamson,  B. Austin,  J. Baker,  G. J. O. Beran,  K. Brandhorst,  
 S. T. Brown,  E. F. C. Byrd,  A. K. Chakraborty,  C.-L. Cheng,  
 Siu Hung Chien,  D. M. Chipman,  D. L. Crittenden,  H. Dachsel,  
 R. J. Doerksen,  A. D. Dutoi,  L. Fusti-Molnar,  W. A. Goddard III,  
 A. Golubeva-Zadorozhnaya,  S. R. Gwaltney,  G. Hawkins,  A. Heyden,  
 S. Hirata,  G. Kedziora,  F. J. Keil,  C. Kelley,  Jihan Kim,  R. A. King,  
 R. Z. Khaliullin,  P. P. Korambath,  W. Kurlancheek,  A. M. Lee,  M. S. Lee,  
 S. V. Levchenko,  Ching Yeh Lin,  D. Liotard,  R. C. Lochan,  I. Lotan,  
 P. E. Maslen,  N. Nair,  D. P. O'Neill,  D. Neuhauser,  E. Neuscamman,  
 C. M. Oana,  R. Olson,  B. Peters,  R. Peverati,  P. A. Pieniazek,  
 Y. M. Rhee,  J. Ritchie,  M. A. Rohrdanz,  E. Rosta,  N. J. Russ,  
 H. F. Schaefer III,  N. E. Schultz,  N. Shenvi,  A. C. Simmonett,  A. Sodt,  
 D. Stuck,  K. S. Thanthiriwatte,  V. Vanovschi,  Tao Wang,  A. Warshel,  
 C. F. Williams,  Q. Wu,  X. Xu,  W. Zhang

 Please cite Q-Chem as follows:
 Y. Shao et al., Mol. Phys. 113, 184-215 (2015)
 DOI: 10.1080/00268976.2014.952696

 Q-Chem 5.3.0 for Intel X86 EM64T Linux

 Parts of Q-Chem use Armadillo 9.800.1 (Horizon Scraper).
 http://arma.sourceforge.net/

 Q-Chem begins on Mon Jul 13 15:21:06 2020  

Host: centos77-c5
0

     Scratch files written to /tmp/29025.centos77-h1/qchem53737//
Processing $rem in /opt/qchem-5.3.0-intel2020u1//config/preferences:
Processing $rem in /home/shihchengli/.qchemrc:

Checking the input file for inconsistencies... 	...done.

--------------------------------------------------------------
User input:
--------------------------------------------------------------
$rem
   JOBTYPE  sp
   EXCHANGE   omegaB97X-D
   BASIS   6-311+G(2df,2pd)
   UNRESTRICTED   True
   max_scf_cycles   250
   geom_opt_max_cycles   1500
   basis2 6-31G*
   scf_algorithm rca_diis
   SYM_IGNORE  TRUE
   print_input   true
   geom_opt_dmax   80
   pop_mulliken false
   XC_GRID 000075000302
$end

$molecule
0 3
N       0.6783811540     1.0885628753     2.3747350953
O       0.5757941919     2.2291807195     2.0501882757
O       1.6066863399     0.3557188132     2.4148401208
N       -0.5211132421     -0.9430643444     3.3095136437
O       0.2026495674     -1.2447139071     4.1757240095
O       -0.5974068810     0.6093049534     2.7752987450
$end
--------------------------------------------------------------
 ----------------------------------------------------------------
             Standard Nuclear Orientation (Angstroms)
    I     Atom           X                Y                Z
 ----------------------------------------------------------------
    1      N       0.6783811540     1.0885628753     2.3747350953
    2      O       0.5757941919     2.2291807195     2.0501882757
    3      O       1.6066863399     0.3557188132     2.4148401208
    4      N      -0.5211132421    -0.9430643444     3.3095136437
    5      O       0.2026495674    -1.2447139071     4.1757240095
    6      O      -0.5974068810     0.6093049534     2.7752987450
 ----------------------------------------------------------------
 Nuclear Repulsion Energy =         234.71046962 hartrees
 There are       24 alpha and       22 beta electrons
 Requested basis set is 6-311+G(2df,2pd)
 There are 48 shells and 204 basis functions

 Total QAlloc Memory Limit   2000 MB
 Mega-Array Size       188 MB
 MEM_STATIC part       192 MB

                       Distance Matrix (Angstroms)
             N (  1)   O (  2)   O (  3)   N (  4)   O (  5)
   O (  2)  1.190321
   O (  3)  1.183393  2.169232
   N (  4)  2.537737  3.585003  2.648549
   O (  5)  2.985643  4.089631  2.762864  1.168394
   O (  6)  1.420484  2.127483  2.247724  1.643489  2.457370
 
 A cutoff of  1.0D-09 yielded   1040 shell pairs
 There are     19393 function pairs (     25487 Cartesian)
 Smallest overlap matrix eigenvalue = 6.48E-04

 Scale SEOQF with 1.000000e-01/1.000000e-01/1.000000e-01

 Standard Electronic Orientation quadrupole field applied
 Nucleus-field energy     =    -0.0000000364 hartrees
 Requested basis set is 6-31G(d)
 There are 24 shells and 84 basis functions
 A cutoff of  1.0D-09 yielded    270 shell pairs
 There are      3544 function pairs (      4074 Cartesian)
 Smallest overlap matrix eigenvalue = 4.80E-03
 Guess from superposition of atomic densities
 Warning:  Energy on first SCF cycle will be non-variational
 SAD guess density has 46.000000 electrons
 Long-range K will be added via erf
 Coulomb attenuation parameter = 0.2 bohr**(-1)
 An unrestricted hybrid HF-DFT SCF calculation will be
 performed using Relaxed Constraint Minimization + Pulay DIIS
 Exchange:     0.2220 Hartree-Fock + 1.0000 wB97X-D + LR-HF
 Correlation:  1.0000 wB97X-D
 Using Euler-Maclaurin-Lebedev (75,302) quadrature formula
 Dispersion:   Grimme D
 SCF converges when DIIS error is below 1.0E-04
 using 6 threads for integral computing
 -------------------------------------------------------
 OpenMP Integral computing Module                
 Release: version 1.0, May 2013, Q-Chem Inc. Pittsburgh 
 -------------------------------------------------------
 using 6 threads for integral computing
 -------------------------------------------------------
 OpenMP Integral computing Module                
 Release: version 1.0, May 2013, Q-Chem Inc. Pittsburgh 
 -------------------------------------------------------
 ---------------------------------------
  Cycle       Energy         DIIS Error
 ---------------------------------------
    1    -411.0356551471      8.84E-02
    2    -409.6568227222      1.95E-02
    3    -409.7606386820      4.43E-03
    4    -409.9087586803      4.66E-03
    5    -409.9149778966      6.46E-04 Done RCA. Switching to DIIS
    6    -409.9233835362      5.52E-04
    7    -409.9238433611      1.40E-04
    8    -409.9239467526      7.27E-05 Convergence criterion met
 ---------------------------------------
 <S^2> = 2.0155
 SCF time:  CPU 14.99 s  wall 2.51 s
 SCF   energy in the small basis set = -409.92394675
 Total energy in the small basis set = -409.92394675
 ----------------------------------------------------
  Cycle       Energy    
 ----------------------------------------------------
    1     -41.7579513567     -4.18E+01
 Long-range K will be added via erf
 Coulomb attenuation parameter = 0.2 bohr**(-1)
 An unrestricted hybrid HF-DFT SCF calculation will be
 performed using Relaxed Constraint Minimization + Pulay DIIS
 Exchange:     0.2220 Hartree-Fock + 1.0000 wB97X-D + LR-HF
 Correlation:  1.0000 wB97X-D
 Using Euler-Maclaurin-Lebedev (75,302) quadrature formula
 Dispersion:   Grimme D
 SCF converges when DIIS error is below 1.0E-05
 Basis2 calculation detected. Using small basis as guess for larger.
 SCFMinFind is unable to tell whether the solution found is close.
 Resetting ReadMinima to 0 and attempting to follow guess.
 SCFMinFind following SCF Guess.
 using 6 threads for integral computing
 -------------------------------------------------------
 OpenMP Integral computing Module                
 Release: version 1.0, May 2013, Q-Chem Inc. Pittsburgh 
 -------------------------------------------------------
 using 6 threads for integral computing
 -------------------------------------------------------
 OpenMP Integral computing Module                
 Release: version 1.0, May 2013, Q-Chem Inc. Pittsburgh 
 -------------------------------------------------------
 ---------------------------------------
  Cycle       Energy         DIIS Error
 ---------------------------------------
    1    -410.0114782813      8.03E-03
    2    -410.0188799705      4.24E-03
    3    -410.0407176341      1.22E-03
    4    -410.0722646379      1.20E-03
    5    -410.0748183746      1.49E-04 Done RCA. Switching to DIIS
    6    -410.0786789642      1.50E-04
    7    -410.0788678371      5.86E-05
    8    -410.0789865938      2.51E-05
    9    -410.0790283298      1.37E-05
   10    -410.0790406890      7.02E-06 Convergence criterion met
 ---------------------------------------
 <S^2> = 2.0180
 SCF time:  CPU 67.22 s  wall 11.23 s
 SCF   energy in the final basis set = -410.07904069
 Total energy in the final basis set = -410.07904069
 
 --------------------------------------------------------------
 
                    Orbital Energies (a.u.)
 --------------------------------------------------------------
 
 Alpha MOs
 -- Occupied --
-19.4121 -19.4010 -19.3519 -19.3490 -14.7745 -14.6193  -1.4464  -1.3703
 -1.2615  -1.2078  -0.8755  -0.7768  -0.7207  -0.7180  -0.6871  -0.6588
 -0.6413  -0.6219  -0.5047  -0.4993  -0.4664  -0.4611  -0.4392  -0.3383
 -- Virtual --
 -0.0241   0.0111   0.0764   0.1119   0.1281   0.1363   0.1379   0.1700
  0.1781   0.1890   0.2274   0.2347   0.2433   0.2690   0.2857   0.2939
  0.3001   0.3231   0.3425   0.3471   0.3521   0.3573   0.3721   0.3867
  0.4092   0.4265   0.4409   0.4658   0.4718   0.5287   0.7470   0.7668
  0.7882   0.8333   0.8499   0.8800   0.9265   0.9404   0.9761   1.0119
  1.0242   1.0327   1.0452   1.0723   1.0802   1.1010   1.1118   1.1279
  1.1319   1.1397   1.1638   1.1973   1.2303   1.2417   1.2841   1.3301
  1.4398   1.4668   1.5278   1.5448   1.5668   1.5753   1.5996   1.6079
  1.6502   1.6656   1.7181   1.7956   1.8420   1.8787   1.9268   1.9505
  1.9799   2.1339   2.1834   2.2618   2.3304   2.3735   2.4140   2.4828
  2.5362   2.5656   2.7033   2.8062   3.5097   3.5279   3.5798   3.6018
  3.6427   3.6569   3.6811   3.7135   3.7331   3.7693   3.7877   3.8896
  3.9433   3.9783   4.0163   4.0726   4.1184   4.4240   4.4565   4.4901
  4.4935   4.5935   4.6477   4.6581   4.7019   4.7135   4.7351   4.7554
  4.8275   4.9135   4.9913   5.0040   5.0134   5.0237   5.0378   5.0463
  5.0720   5.0774   5.0889   5.1236   5.1314   5.1466   5.1576   5.1720
  5.2246   5.2909   5.3161   5.3719   5.4029   5.4367   5.4771   5.4903
  5.5200   5.5597   5.6242   5.6711   5.8235   5.8646   5.9828   6.1000
  6.3227   6.5317   6.6471   6.6547   6.7134   6.7302   6.7467   6.7666
  6.7907   6.8238   6.8797   6.9067   6.9409   7.0002   7.1035   7.1145
  7.1577   7.1673   7.1982   7.2714   7.3146   7.3606   7.4067   7.5688
  7.6686   7.6914   7.8131   7.8450   7.9099   8.2771  35.9176  36.1220
 49.9929  50.1627  50.2344  50.2641
 
 Beta MOs
 -- Occupied --
-19.3993 -19.3827 -19.3494 -19.3492 -14.7744 -14.6014  -1.4417  -1.3320
 -1.2586  -1.1752  -0.8310  -0.7468  -0.7175  -0.7028  -0.6741  -0.6085
 -0.5796  -0.5576  -0.4794  -0.4732  -0.4633  -0.4473
 -- Virtual --
 -0.1540  -0.0270  -0.0005   0.0630   0.0856   0.1203   0.1359   0.1398
  0.1432   0.1722   0.1845   0.1930   0.2294   0.2368   0.2469   0.2711
  0.2885   0.2982   0.3046   0.3242   0.3443   0.3485   0.3545   0.3589
  0.3752   0.3918   0.4123   0.4395   0.4435   0.4704   0.4886   0.5356
  0.7571   0.7736   0.8089   0.8548   0.8602   0.8837   0.9320   0.9482
  0.9867   1.0158   1.0420   1.0431   1.0574   1.0819   1.0867   1.1114
  1.1216   1.1370   1.1438   1.1533   1.1709   1.2090   1.2379   1.2604
  1.2947   1.3511   1.4531   1.4782   1.5342   1.5493   1.5702   1.5893
  1.6175   1.6296   1.6733   1.6774   1.7295   1.7983   1.8550   1.8921
  1.9329   1.9622   1.9944   2.1563   2.1876   2.2772   2.3461   2.3828
  2.4251   2.4998   2.5382   2.5697   2.7132   2.8100   3.5355   3.5623
  3.5952   3.6210   3.6562   3.6599   3.6953   3.7268   3.7424   3.8039
  3.8512   3.9074   3.9680   4.0015   4.0176   4.0837   4.1328   4.4273
  4.4595   4.4948   4.4978   4.6245   4.6535   4.6864   4.7348   4.7410
  4.7616   4.7921   4.8683   4.9576   5.0088   5.0237   5.0408   5.0453
  5.0519   5.0626   5.0866   5.0868   5.1044   5.1279   5.1668   5.1714
  5.1761   5.1967   5.2421   5.3181   5.3348   5.3907   5.4052   5.4503
  5.4908   5.5180   5.5456   5.5689   5.6466   5.6869   5.8299   5.8710
  5.9998   6.1358   6.3350   6.5342   6.6668   6.6976   6.7472   6.7637
  6.7886   6.8058   6.8098   6.8328   6.8822   6.9093   6.9753   7.0117
  7.1196   7.1349   7.1672   7.1965   7.2303   7.2769   7.3311   7.3756
  7.4320   7.5769   7.6966   7.7204   7.8229   7.8625   7.9180   8.2797
 35.9390  36.1224  50.0064  50.1797  50.2370  50.2639
 --------------------------------------------------------------
 
 -----------------------------------------------------------------
                    Cartesian Multipole Moments
 -----------------------------------------------------------------
    Charge (ESU x 10^10)
                -0.0000
    Dipole Moment (Debye)
         X      -0.5139      Y      -0.6341      Z       0.2617
       Tot       0.8571
    Quadrupole Moments (Debye-Ang)
        XX     -33.7654     XY       0.5945     YY     -33.7198
        XZ      -1.1622     YZ      -0.5808     ZZ     -29.8395
    Octopole Moments (Debye-Ang^2)
       XXX     -33.9665    XXY     -12.2156    XYY     -11.5405
       YYY     -42.2850    XXZ     -94.5172    XYZ       3.0257
       YYZ     -92.7976    XZZ     -12.4543    YZZ      -8.7491
       ZZZ    -262.8550
    Hexadecapole Moments (Debye-Ang^3)
      XXXX    -159.7554   XXXY     -41.1041   XXYY     -78.3145
      XYYY     -41.4971   YYYY    -326.1020   XXXZ     -71.8940
      XXYZ      -9.6337   XYYZ     -23.8832   YYYZ     -41.9047
      XXZZ    -309.8150   XYZZ      -0.3442   YYZZ    -328.8685
      XZZZ     -68.2854   YZZZ      -2.8839   ZZZZ   -1636.0110
 -----------------------------------------------------------------
Archival summary:
1\1\centos77-c5\SP\ProcedureUnspecified\BasisUnspecified\42(3)\shihchen\MonJul1315:21:222020MonJul1315:21:222020\0\\#,ProcedureUnspecified,BasisUnspecified,\\0,3\N\O,1,1.18339\O,1,1.19032,2,132.087\O,1,1.42048,2,119.081,3,-179.712,0\N,4,1.64349,1,111.633,2,2.58945,0\O,5,1.16839,4,120.904,1,55.6949,0\\\@

 Total job time:  16.20s(wall), 86.39s(cpu) 
 Mon Jul 13 15:21:22 2020

        *************************************************************
        *                                                           *
        *  Thank you very much for using Q-Chem.  Have a nice day.  *
        *                                                           *
        *************************************************************


