                  Welcome to Q-Chem
     A Quantum Leap Into The Future Of Chemistry


 Q-Chem 5.3 (devel), Q-Chem, Inc., Pleasanton, CA (2020)

 Yihan Shao,  Zhengting Gan,  E. Epifanovsky,  A. T. B. Gilbert,  M. Wormit,  
 J. Kussmann,  A. W. Lange,  A. Behn,  Jia Deng,  Xintian Feng,  D. Ghosh,  
 M. Goldey,  P. R. Horn,  L. D. Jacobson,  I. Kaliman,  T. Kus,  A. Landau,  
 Jie Liu,  E. I. Proynov,  R. M. Richard,  R. P. Steele,  E. J. Sundstrom,  
 H. L. Woodcock III,  P. M. Zimmerman,  D. Zuev,  B. Alam,  B. Albrecht,  
 E. Alguire,  S. A. Baeppler,  D. Barton,  Z. Benda,  Y. A. Bernard,  
 E. J. Berquist,  K. B. Bravaya,  H. Burton,  K. Carter-Fenk,  D. Casanova,  
 Chun-Min Chang,  Yunqing Chen,  A. Chien,  K. D. Closser,  M. P. Coons,  
 S. Coriani,  S. Dasgupta,  A. L. Dempwolff,  M. Diedenhofen,  Hainam Do,  
 R. G. Edgar,  Po-Tung Fang,  S. Faraji,  S. Fatehi,  Qingguo Feng,  
 J. Fosso-Tande,  J. Gayvert,  Qinghui Ge,  A. Ghysels,  G. Gidofalvi,  
 J. Gomes,  J. Gonthier,  A. Gunina,  D. Hait,  M. W. D. Hanson-Heine,  
 P. H. P. Harbach,  A. W. Hauser,  M. F. Herbst,  J. E. Herr,  
 E. G. Hohenstein,  Z. C. Holden,  Kerwin Hui,  B. C. Huynh,  T.-C. Jagau,  
 Hyunjun Ji,  B. Kaduk,  K. Khistyaev,  Jaehoon Kim,  P. Klunzinger,  K. Koh,  
 D. Kosenkov,  L. Koulias,  T. Kowalczyk,  C. M. Krauter,  A. Kunitsa,  
 Ka Un Lao,  A. Laurent,  K. V. Lawler,  Joonho Lee,  D. Lefrancois,  
 S. Lehtola,  D. S. Levine,  Yi-Pei Li,  You-Sheng Lin,  Fenglai Liu,  
 Kuan-Yu Liu,  E. Livshits,  M. Loipersberger,  A. Luenser,  P. Manohar,  
 E. Mansoor,  S. F. Manzer,  Shan-Ping Mao,  Yuezhi Mao,  N. Mardirossian,  
 A. V. Marenich,  T. Markovich,  L. A. Martinez-Martinez,  S. A. Maurer,  
 N. J. Mayhall,  S. C. McKenzie,  J.-M. Mewes,  P. Morgante,  A. F. Morrison,  
 J. W. Mullinax,  K. Nanda,  T. S. Nguyen-Beck,  R. Olivares-Amaya,  
 K. J. Oosterbaan,  J. A. Parkhill,  S. K. Paul,  F. Pavosevic,  Zheng Pei,  
 T. M. Perrine,  F. Plasser,  P. Pokhilko,  S. Prager,  A. Prociuk,  
 E. Ramos,  B. Rana,  D. R. Rehn,  F. Rob,  M. Scheurer,  M. Schneider,  
 N. Sergueev,  S. M. Sharada,  S. Sharma,  D. W. Small,  T. Stauch,  
 C. J. Stein,  T. Stein,  Yu-Chuan Su,  S. P. Veccham,  Zhen Tao,  
 A. J. W. Thom,  A. Tkatchenko,  T. Tsuchimochi,  N. M. Tubman,  L. Vogt,  
 M. L. Vidal,  O. Vydrov,  M. A. Watson,  J. Wenzel,  M. de Wergifosse,  
 T. A. Wesolowski,  A. White,  J. Witte,  A. Yamada,  Jun Yang,  K. Yao,  
 S. Yeganeh,  S. R. Yost,  Zhi-Qiang You,  A. Zech,  Igor Ying Zhang,  
 Xing Zhang,  Yan Zhao,  Ying Zhu,  B. R. Brooks,  G. K. L. Chan,  
 C. J. Cramer,  M. S. Gordon,  W. J. Hehre,  A. Klamt,  M. W. Schmidt,  
 C. D. Sherrill,  D. G. Truhlar,  A. Aspuru-Guzik,  R. Baer,  A. T. Bell,  
 N. A. Besley,  Jeng-Da Chai,  A. E. DePrince, III,  R. A. DiStasio Jr.,  
 A. Dreuw,  B. D. Dunietz,  T. R. Furlani,  Chao-Ping Hsu,  Yousung Jung,  
 Jing Kong,  D. S. Lambrecht,  WanZhen Liang,  C. Ochsenfeld,  
 V. A. Rassolov,  L. V. Slipchenko,  J. E. Subotnik,  T. Van Voorhis,  
 J. M. Herbert,  A. I. Krylov,  P. M. W. Gill,  M. Head-Gordon

 Contributors to earlier versions of Q-Chem not listed above: 
 R. D. Adamson,  B. Austin,  J. Baker,  G. J. O. Beran,  K. Brandhorst,  
 S. T. Brown,  E. F. C. Byrd,  A. K. Chakraborty,  C.-L. Cheng,  
 Siu Hung Chien,  D. M. Chipman,  D. L. Crittenden,  H. Dachsel,  
 R. J. Doerksen,  A. D. Dutoi,  L. Fusti-Molnar,  W. A. Goddard III,  
 A. Golubeva-Zadorozhnaya,  S. R. Gwaltney,  G. Hawkins,  A. Heyden,  
 S. Hirata,  G. Kedziora,  F. J. Keil,  C. Kelley,  Jihan Kim,  R. A. King,  
 R. Z. Khaliullin,  P. P. Korambath,  W. Kurlancheek,  A. M. Lee,  M. S. Lee,  
 S. V. Levchenko,  Ching Yeh Lin,  D. Liotard,  R. C. Lochan,  I. Lotan,  
 P. E. Maslen,  N. Nair,  D. P. O'Neill,  D. Neuhauser,  E. Neuscamman,  
 C. M. Oana,  R. Olson,  B. Peters,  R. Peverati,  P. A. Pieniazek,  
 Y. M. Rhee,  J. Ritchie,  M. A. Rohrdanz,  E. Rosta,  N. J. Russ,  
 H. F. Schaefer III,  N. E. Schultz,  N. Shenvi,  A. C. Simmonett,  A. Sodt,  
 D. Stuck,  K. S. Thanthiriwatte,  V. Vanovschi,  Tao Wang,  A. Warshel,  
 C. F. Williams,  Q. Wu,  X. Xu,  W. Zhang

 Please cite Q-Chem as follows:
 Y. Shao et al., Mol. Phys. 113, 184-215 (2015)
 DOI: 10.1080/00268976.2014.952696

 Q-Chem 5.3.0 for Intel X86 EM64T Linux

 Parts of Q-Chem use Armadillo 9.800.1 (Horizon Scraper).
 http://arma.sourceforge.net/

 Q-Chem begins on Mon Jul 13 15:15:58 2020  

Host: centos77-c5
0

     Scratch files written to /tmp/29025.centos77-h1/qchem91132//
Processing $rem in /opt/qchem-5.3.0-intel2020u1//config/preferences:
Processing $rem in /home/shihchengli/.qchemrc:

Checking the input file for inconsistencies... 	...done.

--------------------------------------------------------------
User input:
--------------------------------------------------------------
$rem
   JOBTYPE  sp
   EXCHANGE   omegaB97X-D
   BASIS   6-311+G(2df,2pd)
   UNRESTRICTED   True
   max_scf_cycles   250
   geom_opt_max_cycles   1500
   basis2 6-31G*
   scf_algorithm rca_diis
   SYM_IGNORE  TRUE
   print_input   true
   geom_opt_dmax   80
   pop_mulliken false
   XC_GRID 000075000302
$end

$molecule
0 3
N       0.7287579365     1.2259054382     2.4221006726
O       0.4326028049     2.0874749900     1.6560368142
O       1.7464992490     0.9634297353     2.9659099008
N       -0.1012378888     -0.7502093371     3.7808442928
O       -0.4469646423     -1.8522592761     3.6044798841
O       -0.4146663292     0.4206475596     2.6709283255
$end
--------------------------------------------------------------
 ----------------------------------------------------------------
             Standard Nuclear Orientation (Angstroms)
    I     Atom           X                Y                Z
 ----------------------------------------------------------------
    1      N       0.7287579365     1.2259054382     2.4221006726
    2      O       0.4326028049     2.0874749900     1.6560368142
    3      O       1.7464992490     0.9634297353     2.9659099008
    4      N      -0.1012378888    -0.7502093371     3.7808442928
    5      O      -0.4469646423    -1.8522592761     3.6044798841
    6      O      -0.4146663292     0.4206475596     2.6709283255
 ----------------------------------------------------------------
 Nuclear Repulsion Energy =         229.60675333 hartrees
 There are       24 alpha and       22 beta electrons
 Requested basis set is 6-311+G(2df,2pd)
 There are 48 shells and 204 basis functions

 Total QAlloc Memory Limit   2000 MB
 Mega-Array Size       188 MB
 MEM_STATIC part       192 MB

                       Distance Matrix (Angstroms)
             N (  1)   O (  2)   O (  3)   N (  4)   O (  5)
   O (  2)  1.190321
   O (  3)  1.183393  2.169232
   N (  4)  2.537737  3.585003  2.648549
   O (  5)  3.500777  4.482363  3.625901  1.168394
   O (  6)  1.420484  2.127483  2.247724  1.643489  2.457370
 
 A cutoff of  1.0D-09 yielded   1014 shell pairs
 There are     18882 function pairs (     24761 Cartesian)
 Smallest overlap matrix eigenvalue = 7.46E-04

 Scale SEOQF with 1.000000e-01/1.000000e-01/1.000000e-01

 Standard Electronic Orientation quadrupole field applied
 Nucleus-field energy     =    -0.0000000350 hartrees
 Requested basis set is 6-31G(d)
 There are 24 shells and 84 basis functions
 A cutoff of  1.0D-09 yielded    265 shell pairs
 There are      3478 function pairs (      3998 Cartesian)
 Smallest overlap matrix eigenvalue = 4.70E-03
 Guess from superposition of atomic densities
 Warning:  Energy on first SCF cycle will be non-variational
 SAD guess density has 46.000000 electrons
 Long-range K will be added via erf
 Coulomb attenuation parameter = 0.2 bohr**(-1)
 An unrestricted hybrid HF-DFT SCF calculation will be
 performed using Relaxed Constraint Minimization + Pulay DIIS
 Exchange:     0.2220 Hartree-Fock + 1.0000 wB97X-D + LR-HF
 Correlation:  1.0000 wB97X-D
 Using Euler-Maclaurin-Lebedev (75,302) quadrature formula
 Dispersion:   Grimme D
 SCF converges when DIIS error is below 1.0E-04
 using 6 threads for integral computing
 -------------------------------------------------------
 OpenMP Integral computing Module                
 Release: version 1.0, May 2013, Q-Chem Inc. Pittsburgh 
 -------------------------------------------------------
 using 6 threads for integral computing
 -------------------------------------------------------
 OpenMP Integral computing Module                
 Release: version 1.0, May 2013, Q-Chem Inc. Pittsburgh 
 -------------------------------------------------------
 ---------------------------------------
  Cycle       Energy         DIIS Error
 ---------------------------------------
    1    -411.0328379618      8.84E-02
    2    -409.6571354376      1.95E-02
    3    -409.7604419874      4.54E-03
    4    -409.9095261735      4.80E-03
    5    -409.9160554439      6.37E-04 Done RCA. Switching to DIIS
    6    -409.9248077030      5.55E-04
    7    -409.9252402385      1.01E-04
    8    -409.9253200352      8.68E-05 Convergence criterion met
 ---------------------------------------
 <S^2> = 2.0160
 SCF time:  CPU 14.38 s  wall 2.41 s
 SCF   energy in the small basis set = -409.92532004
 Total energy in the small basis set = -409.92532004
 ----------------------------------------------------
  Cycle       Energy    
 ----------------------------------------------------
    1     -41.7573455367     -4.18E+01
 Long-range K will be added via erf
 Coulomb attenuation parameter = 0.2 bohr**(-1)
 An unrestricted hybrid HF-DFT SCF calculation will be
 performed using Relaxed Constraint Minimization + Pulay DIIS
 Exchange:     0.2220 Hartree-Fock + 1.0000 wB97X-D + LR-HF
 Correlation:  1.0000 wB97X-D
 Using Euler-Maclaurin-Lebedev (75,302) quadrature formula
 Dispersion:   Grimme D
 SCF converges when DIIS error is below 1.0E-05
 Basis2 calculation detected. Using small basis as guess for larger.
 SCFMinFind is unable to tell whether the solution found is close.
 Resetting ReadMinima to 0 and attempting to follow guess.
 SCFMinFind following SCF Guess.
 using 6 threads for integral computing
 -------------------------------------------------------
 OpenMP Integral computing Module                
 Release: version 1.0, May 2013, Q-Chem Inc. Pittsburgh 
 -------------------------------------------------------
 using 6 threads for integral computing
 -------------------------------------------------------
 OpenMP Integral computing Module                
 Release: version 1.0, May 2013, Q-Chem Inc. Pittsburgh 
 -------------------------------------------------------
 ---------------------------------------
  Cycle       Energy         DIIS Error
 ---------------------------------------
    1    -410.0141787081      8.02E-03
    2    -410.0232592303      4.16E-03
    3    -410.0445181151      1.15E-03
    4    -410.0747600976      1.21E-03
    5    -410.0769894756      1.81E-04 Done RCA. Switching to DIIS
    6    -410.0802328030      1.88E-04
    7    -410.0804246776      5.26E-05
    8    -410.0804984339      2.00E-05
    9    -410.0805209857      9.81E-06 Convergence criterion met
 ---------------------------------------
 <S^2> = 2.0183
 SCF time:  CPU 59.39 s  wall 9.93 s
 SCF   energy in the final basis set = -410.08052099
 Total energy in the final basis set = -410.08052099
 
 --------------------------------------------------------------
 
                    Orbital Energies (a.u.)
 --------------------------------------------------------------
 
 Alpha MOs
 -- Occupied --
-19.4129 -19.4003 -19.3484 -19.3469 -14.7741 -14.6201  -1.4439  -1.3693
 -1.2588  -1.2087  -0.8734  -0.7784  -0.7197  -0.7179  -0.6846  -0.6545
 -0.6422  -0.6266  -0.5044  -0.4954  -0.4639  -0.4602  -0.4387  -0.3368
 -- Virtual --
 -0.0220   0.0068   0.0733   0.1151   0.1222   0.1347   0.1411   0.1681
  0.1783   0.1932   0.2311   0.2401   0.2553   0.2645   0.2747   0.2989
  0.3009   0.3262   0.3415   0.3459   0.3492   0.3614   0.3703   0.3859
  0.4187   0.4253   0.4383   0.4702   0.4756   0.5249   0.7362   0.7584
  0.8036   0.8108   0.8762   0.8798   0.9311   0.9537   0.9886   1.0031
  1.0159   1.0421   1.0690   1.0749   1.0822   1.0878   1.1076   1.1238
  1.1293   1.1488   1.1599   1.1864   1.2114   1.2452   1.2680   1.3300
  1.4611   1.4802   1.5255   1.5343   1.5519   1.5763   1.5935   1.6104
  1.6409   1.6639   1.7262   1.7905   1.8313   1.8818   1.9094   1.9545
  1.9959   2.1380   2.1775   2.1879   2.3493   2.3679   2.4397   2.4780
  2.5391   2.5543   2.7035   2.8094   3.5143   3.5315   3.5787   3.6073
  3.6146   3.6602   3.6763   3.7266   3.7389   3.7673   3.7922   3.8844
  3.9581   3.9867   4.0171   4.0783   4.1135   4.4219   4.4524   4.4870
  4.4986   4.6007   4.6360   4.6477   4.6905   4.7208   4.7402   4.7832
  4.7963   4.8981   4.9951   5.0053   5.0206   5.0278   5.0428   5.0483
  5.0594   5.0799   5.0813   5.1142   5.1212   5.1309   5.1685   5.1831
  5.2118   5.2851   5.3246   5.3813   5.4039   5.4124   5.4613   5.4998
  5.5520   5.5659   5.6349   5.6600   5.8187   5.8643   5.9877   6.1258
  6.3289   6.5361   6.6517   6.6741   6.6881   6.7213   6.7444   6.7663
  6.7929   6.8298   6.8827   6.9075   6.9442   6.9946   7.0968   7.1040
  7.1543   7.1683   7.1929   7.2712   7.2927   7.3492   7.4419   7.5630
  7.6648   7.6876   7.8220   7.8464   7.9114   8.2759  35.9073  36.1215
 49.9877  50.1624  50.2372  50.2626
 
 Beta MOs
 -- Occupied --
-19.3991 -19.3825 -19.3473 -19.3463 -14.7742 -14.6017  -1.4396  -1.3312
 -1.2566  -1.1747  -0.8306  -0.7442  -0.7156  -0.7049  -0.6727  -0.6033
 -0.5812  -0.5628  -0.4799  -0.4705  -0.4617  -0.4460
 -- Virtual --
 -0.1486  -0.0248   0.0019   0.0572   0.0839   0.1189   0.1336   0.1389
  0.1458   0.1700   0.1804   0.1967   0.2324   0.2421   0.2602   0.2661
  0.2778   0.3012   0.3066   0.3267   0.3427   0.3478   0.3516   0.3645
  0.3724   0.3928   0.4240   0.4358   0.4418   0.4727   0.4913   0.5302
  0.7466   0.7720   0.8177   0.8271   0.8836   0.8883   0.9375   0.9627
  1.0034   1.0103   1.0209   1.0582   1.0772   1.0848   1.0952   1.1020
  1.1182   1.1307   1.1409   1.1533   1.1754   1.1982   1.2217   1.2565
  1.2816   1.3464   1.4704   1.5000   1.5365   1.5379   1.5639   1.5797
  1.6114   1.6258   1.6626   1.6805   1.7357   1.7946   1.8430   1.8955
  1.9164   1.9626   2.0138   2.1645   2.1805   2.2017   2.3554   2.3785
  2.4594   2.4953   2.5414   2.5571   2.7127   2.8133   3.5399   3.5691
  3.5953   3.6225   3.6288   3.6617   3.6921   3.7388   3.7571   3.8050
  3.8454   3.9051   3.9919   4.0042   4.0176   4.0904   4.1271   4.4240
  4.4558   4.4924   4.4999   4.6395   4.6507   4.6630   4.7261   4.7358
  4.7708   4.8228   4.8446   4.9439   5.0148   5.0254   5.0442   5.0487
  5.0556   5.0635   5.0758   5.0884   5.1067   5.1266   5.1334   5.1489
  5.1899   5.2137   5.2311   5.3124   5.3436   5.4012   5.4122   5.4231
  5.4740   5.5227   5.5584   5.5950   5.6648   5.6680   5.8239   5.8715
  6.0031   6.1632   6.3417   6.5378   6.6874   6.6971   6.7222   6.7682
  6.7856   6.7963   6.8083   6.8374   6.8850   6.9088   6.9812   7.0073
  7.1138   7.1232   7.1693   7.1939   7.2220   7.2767   7.3171   7.3579
  7.4668   7.5718   7.6932   7.7161   7.8323   7.8654   7.9187   8.2778
 35.9296  36.1215  50.0021  50.1788  50.2392  50.2625
 --------------------------------------------------------------
 
 -----------------------------------------------------------------
                    Cartesian Multipole Moments
 -----------------------------------------------------------------
    Charge (ESU x 10^10)
                -0.0000
    Dipole Moment (Debye)
         X      -0.3389      Y      -0.6187      Z       0.4544
       Tot       0.8391
    Quadrupole Moments (Debye-Ang)
        XX     -33.8101     XY      -0.7803     YY     -33.9326
        XZ      -1.4549     YZ      -0.1216     ZZ     -28.9338
    Octopole Moments (Debye-Ang^2)
       XXX     -35.6093    XXY     -13.9549    XYY     -10.9942
       YYY     -36.3363    XXZ     -97.2446    XYZ      -2.2469
       YYZ     -92.1985    XZZ     -15.1471    YZZ      -9.7219
       ZZZ    -256.6558
    Hexadecapole Moments (Debye-Ang^3)
      XXXX    -164.1407   XXXY     -71.1827   XXYY     -90.9053
      XYYY     -70.1243   YYYY    -382.3718   XXXZ     -86.9049
      XXYZ     -12.9898   XYYZ     -23.2854   YYYZ     -12.2624
      XXZZ    -325.5324   XYZZ     -29.3913   YYZZ    -335.6614
      XZZZ     -86.4116   YZZZ     -13.8942   ZZZZ   -1594.5294
 -----------------------------------------------------------------
Archival summary:
1\1\centos77-c5\SP\ProcedureUnspecified\BasisUnspecified\42(3)\shihchen\MonJul1315:16:132020MonJul1315:16:132020\0\\#,ProcedureUnspecified,BasisUnspecified,\\0,3\N\O,1,1.18339\O,1,1.19032,2,132.087\O,1,1.42048,2,119.081,3,-179.712,0\N,4,1.64349,1,111.633,2,2.58945,0\O,5,1.16839,4,120.904,1,-134.305,0\\\@

 Total job time:  14.69s(wall), 78.01s(cpu) 
 Mon Jul 13 15:16:13 2020

        *************************************************************
        *                                                           *
        *  Thank you very much for using Q-Chem.  Have a nice day.  *
        *                                                           *
        *************************************************************


