                  Welcome to Q-Chem
     A Quantum Leap Into The Future Of Chemistry


 Q-Chem 5.3 (devel), Q-Chem, Inc., Pleasanton, CA (2020)

 Yihan Shao,  Zhengting Gan,  E. Epifanovsky,  A. T. B. Gilbert,  M. Wormit,  
 J. Kussmann,  A. W. Lange,  A. Behn,  Jia Deng,  Xintian Feng,  D. Ghosh,  
 M. Goldey,  P. R. Horn,  L. D. Jacobson,  I. Kaliman,  T. Kus,  A. Landau,  
 Jie Liu,  E. I. Proynov,  R. M. Richard,  R. P. Steele,  E. J. Sundstrom,  
 H. L. Woodcock III,  P. M. Zimmerman,  D. Zuev,  B. Alam,  B. Albrecht,  
 E. Alguire,  S. A. Baeppler,  D. Barton,  Z. Benda,  Y. A. Bernard,  
 E. J. Berquist,  K. B. Bravaya,  H. Burton,  K. Carter-Fenk,  D. Casanova,  
 Chun-Min Chang,  Yunqing Chen,  A. Chien,  K. D. Closser,  M. P. Coons,  
 S. Coriani,  S. Dasgupta,  A. L. Dempwolff,  M. Diedenhofen,  Hainam Do,  
 R. G. Edgar,  Po-Tung Fang,  S. Faraji,  S. Fatehi,  Qingguo Feng,  
 J. Fosso-Tande,  J. Gayvert,  Qinghui Ge,  A. Ghysels,  G. Gidofalvi,  
 J. Gomes,  J. Gonthier,  A. Gunina,  D. Hait,  M. W. D. Hanson-Heine,  
 P. H. P. Harbach,  A. W. Hauser,  M. F. Herbst,  J. E. Herr,  
 E. G. Hohenstein,  Z. C. Holden,  Kerwin Hui,  B. C. Huynh,  T.-C. Jagau,  
 Hyunjun Ji,  B. Kaduk,  K. Khistyaev,  Jaehoon Kim,  P. Klunzinger,  K. Koh,  
 D. Kosenkov,  L. Koulias,  T. Kowalczyk,  C. M. Krauter,  A. Kunitsa,  
 Ka Un Lao,  A. Laurent,  K. V. Lawler,  Joonho Lee,  D. Lefrancois,  
 S. Lehtola,  D. S. Levine,  Yi-Pei Li,  You-Sheng Lin,  Fenglai Liu,  
 Kuan-Yu Liu,  E. Livshits,  M. Loipersberger,  A. Luenser,  P. Manohar,  
 E. Mansoor,  S. F. Manzer,  Shan-Ping Mao,  Yuezhi Mao,  N. Mardirossian,  
 A. V. Marenich,  T. Markovich,  L. A. Martinez-Martinez,  S. A. Maurer,  
 N. J. Mayhall,  S. C. McKenzie,  J.-M. Mewes,  P. Morgante,  A. F. Morrison,  
 J. W. Mullinax,  K. Nanda,  T. S. Nguyen-Beck,  R. Olivares-Amaya,  
 K. J. Oosterbaan,  J. A. Parkhill,  S. K. Paul,  F. Pavosevic,  Zheng Pei,  
 T. M. Perrine,  F. Plasser,  P. Pokhilko,  S. Prager,  A. Prociuk,  
 E. Ramos,  B. Rana,  D. R. Rehn,  F. Rob,  M. Scheurer,  M. Schneider,  
 N. Sergueev,  S. M. Sharada,  S. Sharma,  D. W. Small,  T. Stauch,  
 C. J. Stein,  T. Stein,  Yu-Chuan Su,  S. P. Veccham,  Zhen Tao,  
 A. J. W. Thom,  A. Tkatchenko,  T. Tsuchimochi,  N. M. Tubman,  L. Vogt,  
 M. L. Vidal,  O. Vydrov,  M. A. Watson,  J. Wenzel,  M. de Wergifosse,  
 T. A. Wesolowski,  A. White,  J. Witte,  A. Yamada,  Jun Yang,  K. Yao,  
 S. Yeganeh,  S. R. Yost,  Zhi-Qiang You,  A. Zech,  Igor Ying Zhang,  
 Xing Zhang,  Yan Zhao,  Ying Zhu,  B. R. Brooks,  G. K. L. Chan,  
 C. J. Cramer,  M. S. Gordon,  W. J. Hehre,  A. Klamt,  M. W. Schmidt,  
 C. D. Sherrill,  D. G. Truhlar,  A. Aspuru-Guzik,  R. Baer,  A. T. Bell,  
 N. A. Besley,  Jeng-Da Chai,  A. E. DePrince, III,  R. A. DiStasio Jr.,  
 A. Dreuw,  B. D. Dunietz,  T. R. Furlani,  Chao-Ping Hsu,  Yousung Jung,  
 Jing Kong,  D. S. Lambrecht,  WanZhen Liang,  C. Ochsenfeld,  
 V. A. Rassolov,  L. V. Slipchenko,  J. E. Subotnik,  T. Van Voorhis,  
 J. M. Herbert,  A. I. Krylov,  P. M. W. Gill,  M. Head-Gordon

 Contributors to earlier versions of Q-Chem not listed above: 
 R. D. Adamson,  B. Austin,  J. Baker,  G. J. O. Beran,  K. Brandhorst,  
 S. T. Brown,  E. F. C. Byrd,  A. K. Chakraborty,  C.-L. Cheng,  
 Siu Hung Chien,  D. M. Chipman,  D. L. Crittenden,  H. Dachsel,  
 R. J. Doerksen,  A. D. Dutoi,  L. Fusti-Molnar,  W. A. Goddard III,  
 A. Golubeva-Zadorozhnaya,  S. R. Gwaltney,  G. Hawkins,  A. Heyden,  
 S. Hirata,  G. Kedziora,  F. J. Keil,  C. Kelley,  Jihan Kim,  R. A. King,  
 R. Z. Khaliullin,  P. P. Korambath,  W. Kurlancheek,  A. M. Lee,  M. S. Lee,  
 S. V. Levchenko,  Ching Yeh Lin,  D. Liotard,  R. C. Lochan,  I. Lotan,  
 P. E. Maslen,  N. Nair,  D. P. O'Neill,  D. Neuhauser,  E. Neuscamman,  
 C. M. Oana,  R. Olson,  B. Peters,  R. Peverati,  P. A. Pieniazek,  
 Y. M. Rhee,  J. Ritchie,  M. A. Rohrdanz,  E. Rosta,  N. J. Russ,  
 H. F. Schaefer III,  N. E. Schultz,  N. Shenvi,  A. C. Simmonett,  A. Sodt,  
 D. Stuck,  K. S. Thanthiriwatte,  V. Vanovschi,  Tao Wang,  A. Warshel,  
 C. F. Williams,  Q. Wu,  X. Xu,  W. Zhang

 Please cite Q-Chem as follows:
 Y. Shao et al., Mol. Phys. 113, 184-215 (2015)
 DOI: 10.1080/00268976.2014.952696

 Q-Chem 5.3.0 for Intel X86 EM64T Linux

 Parts of Q-Chem use Armadillo 9.800.1 (Horizon Scraper).
 http://arma.sourceforge.net/

 Q-Chem begins on Mon Jul 13 15:15:44 2020  

Host: centos77-c5
0

     Scratch files written to /tmp/29025.centos77-h1/qchem86625//
Processing $rem in /opt/qchem-5.3.0-intel2020u1//config/preferences:
Processing $rem in /home/shihchengli/.qchemrc:

Checking the input file for inconsistencies... 	...done.

--------------------------------------------------------------
User input:
--------------------------------------------------------------
$rem
   JOBTYPE  sp
   EXCHANGE   omegaB97X-D
   BASIS   6-311+G(2df,2pd)
   UNRESTRICTED   True
   max_scf_cycles   250
   geom_opt_max_cycles   1500
   basis2 6-31G*
   scf_algorithm rca_diis
   SYM_IGNORE  TRUE
   print_input   true
   geom_opt_dmax   80
   pop_mulliken false
   XC_GRID 000075000302
$end

$molecule
0 3
N       0.7320614847     1.2354841574     2.4219410508
O       0.4182793954     2.0982906300     1.6643332493
O       1.7523239080     0.9942227952     2.9708280093
N       -0.0537170910     -0.7799668513     3.7488231714
O       -0.5133661050     -1.8489468565     3.6432296436
O       -0.3905904620     0.3959052351     2.6511447656
$end
--------------------------------------------------------------
 ----------------------------------------------------------------
             Standard Nuclear Orientation (Angstroms)
    I     Atom           X                Y                Z
 ----------------------------------------------------------------
    1      N       0.7320614847     1.2354841574     2.4219410508
    2      O       0.4182793954     2.0982906300     1.6643332493
    3      O       1.7523239080     0.9942227952     2.9708280093
    4      N      -0.0537170910    -0.7799668513     3.7488231714
    5      O      -0.5133661050    -1.8489468565     3.6432296436
    6      O      -0.3905904620     0.3959052351     2.6511447656
 ----------------------------------------------------------------
 Nuclear Repulsion Energy =         229.27383141 hartrees
 There are       24 alpha and       22 beta electrons
 Requested basis set is 6-311+G(2df,2pd)
 There are 48 shells and 204 basis functions

 Total QAlloc Memory Limit   2000 MB
 Mega-Array Size       188 MB
 MEM_STATIC part       192 MB

                       Distance Matrix (Angstroms)
             N (  1)   O (  2)   O (  3)   N (  4)   O (  5)
   O (  2)  1.190321
   O (  3)  1.183393  2.169232
   N (  4)  2.537737  3.585003  2.648549
   O (  5)  3.543494  4.512724  3.697173  1.168394
   O (  6)  1.420484  2.127483  2.247724  1.643489  2.457370
 
 A cutoff of  1.0D-09 yielded   1014 shell pairs
 There are     18882 function pairs (     24761 Cartesian)
 Smallest overlap matrix eigenvalue = 7.43E-04

 Scale SEOQF with 1.000000e-01/1.000000e-01/1.000000e-01

 Standard Electronic Orientation quadrupole field applied
 Nucleus-field energy     =    -0.0000000349 hartrees
 Requested basis set is 6-31G(d)
 There are 24 shells and 84 basis functions
 A cutoff of  1.0D-09 yielded    265 shell pairs
 There are      3478 function pairs (      3998 Cartesian)
 Smallest overlap matrix eigenvalue = 4.64E-03
 Guess from superposition of atomic densities
 Warning:  Energy on first SCF cycle will be non-variational
 SAD guess density has 46.000000 electrons
 Long-range K will be added via erf
 Coulomb attenuation parameter = 0.2 bohr**(-1)
 An unrestricted hybrid HF-DFT SCF calculation will be
 performed using Relaxed Constraint Minimization + Pulay DIIS
 Exchange:     0.2220 Hartree-Fock + 1.0000 wB97X-D + LR-HF
 Correlation:  1.0000 wB97X-D
 Using Euler-Maclaurin-Lebedev (75,302) quadrature formula
 Dispersion:   Grimme D
 SCF converges when DIIS error is below 1.0E-04
 using 6 threads for integral computing
 -------------------------------------------------------
 OpenMP Integral computing Module                
 Release: version 1.0, May 2013, Q-Chem Inc. Pittsburgh 
 -------------------------------------------------------
 using 6 threads for integral computing
 -------------------------------------------------------
 OpenMP Integral computing Module                
 Release: version 1.0, May 2013, Q-Chem Inc. Pittsburgh 
 -------------------------------------------------------
 ---------------------------------------
  Cycle       Energy         DIIS Error
 ---------------------------------------
    1    -411.0328021421      8.84E-02
    2    -409.6564911259      1.95E-02
    3    -409.7596314726      4.56E-03
    4    -409.9089257897      4.82E-03
    5    -409.9155274710      6.35E-04 Done RCA. Switching to DIIS
    6    -409.9244104577      5.53E-04
    7    -409.9248543338      1.11E-04
    8    -409.9249368693      9.31E-05 Convergence criterion met
 ---------------------------------------
 <S^2> = 2.0159
 SCF time:  CPU 14.30 s  wall 2.40 s
 SCF   energy in the small basis set = -409.92493687
 Total energy in the small basis set = -409.92493687
 ----------------------------------------------------
  Cycle       Energy    
 ----------------------------------------------------
    1     -41.7574722959     -4.18E+01
 Long-range K will be added via erf
 Coulomb attenuation parameter = 0.2 bohr**(-1)
 An unrestricted hybrid HF-DFT SCF calculation will be
 performed using Relaxed Constraint Minimization + Pulay DIIS
 Exchange:     0.2220 Hartree-Fock + 1.0000 wB97X-D + LR-HF
 Correlation:  1.0000 wB97X-D
 Using Euler-Maclaurin-Lebedev (75,302) quadrature formula
 Dispersion:   Grimme D
 SCF converges when DIIS error is below 1.0E-05
 Basis2 calculation detected. Using small basis as guess for larger.
 SCFMinFind is unable to tell whether the solution found is close.
 Resetting ReadMinima to 0 and attempting to follow guess.
 SCFMinFind following SCF Guess.
 using 6 threads for integral computing
 -------------------------------------------------------
 OpenMP Integral computing Module                
 Release: version 1.0, May 2013, Q-Chem Inc. Pittsburgh 
 -------------------------------------------------------
 using 6 threads for integral computing
 -------------------------------------------------------
 OpenMP Integral computing Module                
 Release: version 1.0, May 2013, Q-Chem Inc. Pittsburgh 
 -------------------------------------------------------
 ---------------------------------------
  Cycle       Energy         DIIS Error
 ---------------------------------------
    1    -410.0140025008      8.02E-03
    2    -410.0237433066      4.13E-03
    3    -410.0447245972      1.13E-03
    4    -410.0745802395      1.22E-03
    5    -410.0767556362      1.93E-04 Done RCA. Switching to DIIS
    6    -410.0798794200      2.05E-04
    7    -410.0800924983      5.27E-05
    8    -410.0801654150      1.97E-05
    9    -410.0801874684      9.60E-06 Convergence criterion met
 ---------------------------------------
 <S^2> = 2.0183
 SCF time:  CPU 58.91 s  wall 9.85 s
 SCF   energy in the final basis set = -410.08018747
 Total energy in the final basis set = -410.08018747
 
 --------------------------------------------------------------
 
                    Orbital Energies (a.u.)
 --------------------------------------------------------------
 
 Alpha MOs
 -- Occupied --
-19.4131 -19.4004 -19.3481 -19.3468 -14.7746 -14.6201  -1.4439  -1.3694
 -1.2588  -1.2090  -0.8733  -0.7787  -0.7196  -0.7180  -0.6844  -0.6542
 -0.6442  -0.6252  -0.5052  -0.4954  -0.4639  -0.4601  -0.4388  -0.3356
 -- Virtual --
 -0.0219   0.0062   0.0724   0.1148   0.1216   0.1344   0.1418   0.1677
  0.1785   0.1952   0.2322   0.2397   0.2530   0.2650   0.2794   0.2967
  0.3035   0.3259   0.3404   0.3436   0.3503   0.3588   0.3738   0.3819
  0.4168   0.4245   0.4409   0.4737   0.4802   0.5246   0.7380   0.7612
  0.8005   0.8080   0.8834   0.8848   0.9314   0.9535   0.9882   1.0018
  1.0183   1.0402   1.0680   1.0744   1.0835   1.0895   1.1035   1.1230
  1.1285   1.1475   1.1596   1.1877   1.2120   1.2435   1.2679   1.3347
  1.4612   1.4779   1.5205   1.5380   1.5492   1.5749   1.5952   1.6098
  1.6356   1.6683   1.7327   1.7947   1.8366   1.8730   1.9128   1.9551
  1.9909   2.1389   2.1694   2.1816   2.3527   2.3720   2.4403   2.4840
  2.5391   2.5551   2.7084   2.8104   3.5106   3.5368   3.5767   3.6051
  3.6126   3.6587   3.6715   3.7294   3.7438   3.7661   3.7901   3.8824
  3.9606   3.9806   4.0171   4.0791   4.1233   4.4230   4.4536   4.4906
  4.4985   4.5886   4.6403   4.6462   4.6970   4.7211   4.7421   4.7729
  4.7923   4.9024   4.9940   5.0058   5.0207   5.0272   5.0426   5.0483
  5.0590   5.0785   5.0853   5.1125   5.1235   5.1292   5.1639   5.1833
  5.2082   5.2919   5.3272   5.3771   5.4035   5.4116   5.4645   5.4970
  5.5508   5.5657   5.6390   5.6594   5.8189   5.8638   5.9880   6.1301
  6.3276   6.5361   6.6518   6.6711   6.6951   6.7200   6.7466   6.7657
  6.7918   6.8310   6.8855   6.9075   6.9367   6.9952   7.0977   7.1044
  7.1560   7.1683   7.1907   7.2711   7.2875   7.3483   7.4438   7.5646
  7.6658   7.6899   7.8224   7.8440   7.9142   8.2767  35.9084  36.1212
 49.9873  50.1626  50.2377  50.2629
 
 Beta MOs
 -- Occupied --
-19.3992 -19.3827 -19.3472 -19.3461 -14.7747 -14.6015  -1.4397  -1.3313
 -1.2567  -1.1748  -0.8309  -0.7442  -0.7156  -0.7051  -0.6728  -0.6033
 -0.5798  -0.5646  -0.4799  -0.4706  -0.4616  -0.4460
 -- Virtual --
 -0.1483  -0.0260   0.0051   0.0561   0.0832   0.1183   0.1323   0.1385
  0.1465   0.1695   0.1806   0.1986   0.2339   0.2412   0.2576   0.2665
  0.2832   0.3013   0.3069   0.3264   0.3419   0.3456   0.3524   0.3617
  0.3759   0.3889   0.4230   0.4344   0.4438   0.4776   0.4946   0.5298
  0.7484   0.7753   0.8143   0.8258   0.8889   0.8938   0.9385   0.9631
  1.0005   1.0108   1.0233   1.0558   1.0739   1.0858   1.0981   1.1035
  1.1148   1.1305   1.1409   1.1513   1.1736   1.1999   1.2214   1.2558
  1.2813   1.3504   1.4705   1.4958   1.5372   1.5408   1.5603   1.5784
  1.6095   1.6264   1.6620   1.6787   1.7430   1.7987   1.8505   1.8865
  1.9192   1.9631   2.0092   2.1628   2.1824   2.1875   2.3578   2.3826
  2.4606   2.5016   2.5411   2.5576   2.7180   2.8144   3.5371   3.5738
  3.5946   3.6192   3.6264   3.6605   3.6869   3.7433   3.7620   3.8060
  3.8395   3.9030   3.9954   3.9984   4.0175   4.0901   4.1363   4.4249
  4.4567   4.4954   4.5001   4.6265   4.6505   4.6682   4.7254   4.7452
  4.7725   4.8157   4.8347   4.9491   5.0135   5.0259   5.0440   5.0490
  5.0558   5.0637   5.0754   5.0886   5.1103   5.1257   5.1334   5.1473
  5.1867   5.2123   5.2255   5.3191   5.3475   5.3999   5.4095   5.4219
  5.4780   5.5184   5.5584   5.5953   5.6639   5.6712   5.8245   5.8711
  6.0034   6.1671   6.3406   6.5378   6.6848   6.6968   6.7302   6.7676
  6.7844   6.7956   6.8082   6.8382   6.8878   6.9086   6.9755   7.0079
  7.1152   7.1237   7.1694   7.1950   7.2201   7.2760   7.3125   7.3560
  7.4679   7.5739   7.6945   7.7183   7.8330   7.8624   7.9220   8.2785
 35.9308  36.1211  50.0018  50.1789  50.2399  50.2628
 --------------------------------------------------------------
 
 -----------------------------------------------------------------
                    Cartesian Multipole Moments
 -----------------------------------------------------------------
    Charge (ESU x 10^10)
                -0.0000
    Dipole Moment (Debye)
         X      -0.3185      Y      -0.6389      Z       0.4365
       Tot       0.8367
    Quadrupole Moments (Debye-Ang)
        XX     -33.7757     XY      -0.8864     YY     -33.9663
        XZ      -1.4028     YZ      -0.1884     ZZ     -29.0907
    Octopole Moments (Debye-Ang^2)
       XXX     -35.6873    XXY     -13.9710    XYY     -10.9965
       YYY     -36.6564    XXZ     -97.2245    XYZ      -2.7642
       YYZ     -92.3138    XZZ     -14.8961    YZZ      -9.7941
       ZZZ    -257.7021
    Hexadecapole Moments (Debye-Ang^3)
      XXXX    -165.6288   XXXY     -73.6209   XXYY     -92.0384
      XYYY     -72.9652   YYYY    -387.5124   XXXZ     -87.4011
      XXYZ     -12.7440   XYYZ     -23.2964   YYYZ     -12.1569
      XXZZ    -325.7838   XYZZ     -32.3418   YYZZ    -336.8203
      XZZZ     -85.2339   YZZZ     -12.2650   ZZZZ   -1600.3311
 -----------------------------------------------------------------
Archival summary:
1\1\centos77-c5\SP\ProcedureUnspecified\BasisUnspecified\42(3)\shihchen\MonJul1315:15:582020MonJul1315:15:582020\0\\#,ProcedureUnspecified,BasisUnspecified,\\0,3\N\O,1,1.18339\O,1,1.19032,2,132.087\O,1,1.42048,2,119.081,3,-179.712,0\N,4,1.64349,1,111.633,2,2.58945,0\O,5,1.16839,4,120.904,1,-144.305,0\\\@

 Total job time:  14.64s(wall), 77.61s(cpu) 
 Mon Jul 13 15:15:58 2020

        *************************************************************
        *                                                           *
        *  Thank you very much for using Q-Chem.  Have a nice day.  *
        *                                                           *
        *************************************************************


