                  Welcome to Q-Chem
     A Quantum Leap Into The Future Of Chemistry


 Q-Chem 5.3 (devel), Q-Chem, Inc., Pleasanton, CA (2020)

 Yihan Shao,  Zhengting Gan,  E. Epifanovsky,  A. T. B. Gilbert,  M. Wormit,  
 J. Kussmann,  A. W. Lange,  A. Behn,  Jia Deng,  Xintian Feng,  D. Ghosh,  
 M. Goldey,  P. R. Horn,  L. D. Jacobson,  I. Kaliman,  T. Kus,  A. Landau,  
 Jie Liu,  E. I. Proynov,  R. M. Richard,  R. P. Steele,  E. J. Sundstrom,  
 H. L. Woodcock III,  P. M. Zimmerman,  D. Zuev,  B. Alam,  B. Albrecht,  
 E. Alguire,  S. A. Baeppler,  D. Barton,  Z. Benda,  Y. A. Bernard,  
 E. J. Berquist,  K. B. Bravaya,  H. Burton,  K. Carter-Fenk,  D. Casanova,  
 Chun-Min Chang,  Yunqing Chen,  A. Chien,  K. D. Closser,  M. P. Coons,  
 S. Coriani,  S. Dasgupta,  A. L. Dempwolff,  M. Diedenhofen,  Hainam Do,  
 R. G. Edgar,  Po-Tung Fang,  S. Faraji,  S. Fatehi,  Qingguo Feng,  
 J. Fosso-Tande,  J. Gayvert,  Qinghui Ge,  A. Ghysels,  G. Gidofalvi,  
 J. Gomes,  J. Gonthier,  A. Gunina,  D. Hait,  M. W. D. Hanson-Heine,  
 P. H. P. Harbach,  A. W. Hauser,  M. F. Herbst,  J. E. Herr,  
 E. G. Hohenstein,  Z. C. Holden,  Kerwin Hui,  B. C. Huynh,  T.-C. Jagau,  
 Hyunjun Ji,  B. Kaduk,  K. Khistyaev,  Jaehoon Kim,  P. Klunzinger,  K. Koh,  
 D. Kosenkov,  L. Koulias,  T. Kowalczyk,  C. M. Krauter,  A. Kunitsa,  
 Ka Un Lao,  A. Laurent,  K. V. Lawler,  Joonho Lee,  D. Lefrancois,  
 S. Lehtola,  D. S. Levine,  Yi-Pei Li,  You-Sheng Lin,  Fenglai Liu,  
 Kuan-Yu Liu,  E. Livshits,  M. Loipersberger,  A. Luenser,  P. Manohar,  
 E. Mansoor,  S. F. Manzer,  Shan-Ping Mao,  Yuezhi Mao,  N. Mardirossian,  
 A. V. Marenich,  T. Markovich,  L. A. Martinez-Martinez,  S. A. Maurer,  
 N. J. Mayhall,  S. C. McKenzie,  J.-M. Mewes,  P. Morgante,  A. F. Morrison,  
 J. W. Mullinax,  K. Nanda,  T. S. Nguyen-Beck,  R. Olivares-Amaya,  
 K. J. Oosterbaan,  J. A. Parkhill,  S. K. Paul,  F. Pavosevic,  Zheng Pei,  
 T. M. Perrine,  F. Plasser,  P. Pokhilko,  S. Prager,  A. Prociuk,  
 E. Ramos,  B. Rana,  D. R. Rehn,  F. Rob,  M. Scheurer,  M. Schneider,  
 N. Sergueev,  S. M. Sharada,  S. Sharma,  D. W. Small,  T. Stauch,  
 C. J. Stein,  T. Stein,  Yu-Chuan Su,  S. P. Veccham,  Zhen Tao,  
 A. J. W. Thom,  A. Tkatchenko,  T. Tsuchimochi,  N. M. Tubman,  L. Vogt,  
 M. L. Vidal,  O. Vydrov,  M. A. Watson,  J. Wenzel,  M. de Wergifosse,  
 T. A. Wesolowski,  A. White,  J. Witte,  A. Yamada,  Jun Yang,  K. Yao,  
 S. Yeganeh,  S. R. Yost,  Zhi-Qiang You,  A. Zech,  Igor Ying Zhang,  
 Xing Zhang,  Yan Zhao,  Ying Zhu,  B. R. Brooks,  G. K. L. Chan,  
 C. J. Cramer,  M. S. Gordon,  W. J. Hehre,  A. Klamt,  M. W. Schmidt,  
 C. D. Sherrill,  D. G. Truhlar,  A. Aspuru-Guzik,  R. Baer,  A. T. Bell,  
 N. A. Besley,  Jeng-Da Chai,  A. E. DePrince, III,  R. A. DiStasio Jr.,  
 A. Dreuw,  B. D. Dunietz,  T. R. Furlani,  Chao-Ping Hsu,  Yousung Jung,  
 Jing Kong,  D. S. Lambrecht,  WanZhen Liang,  C. Ochsenfeld,  
 V. A. Rassolov,  L. V. Slipchenko,  J. E. Subotnik,  T. Van Voorhis,  
 J. M. Herbert,  A. I. Krylov,  P. M. W. Gill,  M. Head-Gordon

 Contributors to earlier versions of Q-Chem not listed above: 
 R. D. Adamson,  B. Austin,  J. Baker,  G. J. O. Beran,  K. Brandhorst,  
 S. T. Brown,  E. F. C. Byrd,  A. K. Chakraborty,  C.-L. Cheng,  
 Siu Hung Chien,  D. M. Chipman,  D. L. Crittenden,  H. Dachsel,  
 R. J. Doerksen,  A. D. Dutoi,  L. Fusti-Molnar,  W. A. Goddard III,  
 A. Golubeva-Zadorozhnaya,  S. R. Gwaltney,  G. Hawkins,  A. Heyden,  
 S. Hirata,  G. Kedziora,  F. J. Keil,  C. Kelley,  Jihan Kim,  R. A. King,  
 R. Z. Khaliullin,  P. P. Korambath,  W. Kurlancheek,  A. M. Lee,  M. S. Lee,  
 S. V. Levchenko,  Ching Yeh Lin,  D. Liotard,  R. C. Lochan,  I. Lotan,  
 P. E. Maslen,  N. Nair,  D. P. O'Neill,  D. Neuhauser,  E. Neuscamman,  
 C. M. Oana,  R. Olson,  B. Peters,  R. Peverati,  P. A. Pieniazek,  
 Y. M. Rhee,  J. Ritchie,  M. A. Rohrdanz,  E. Rosta,  N. J. Russ,  
 H. F. Schaefer III,  N. E. Schultz,  N. Shenvi,  A. C. Simmonett,  A. Sodt,  
 D. Stuck,  K. S. Thanthiriwatte,  V. Vanovschi,  Tao Wang,  A. Warshel,  
 C. F. Williams,  Q. Wu,  X. Xu,  W. Zhang

 Please cite Q-Chem as follows:
 Y. Shao et al., Mol. Phys. 113, 184-215 (2015)
 DOI: 10.1080/00268976.2014.952696

 Q-Chem 5.3.0 for Intel X86 EM64T Linux

 Parts of Q-Chem use Armadillo 9.800.1 (Horizon Scraper).
 http://arma.sourceforge.net/

 Q-Chem begins on Mon Jul 13 15:21:22 2020  

Host: centos77-c5
0

     Scratch files written to /tmp/29025.centos77-h1/qchem58713//
Processing $rem in /opt/qchem-5.3.0-intel2020u1//config/preferences:
Processing $rem in /home/shihchengli/.qchemrc:

Checking the input file for inconsistencies... 	...done.

--------------------------------------------------------------
User input:
--------------------------------------------------------------
$rem
   JOBTYPE  sp
   EXCHANGE   omegaB97X-D
   BASIS   6-311+G(2df,2pd)
   UNRESTRICTED   True
   max_scf_cycles   250
   geom_opt_max_cycles   1500
   basis2 6-31G*
   scf_algorithm rca_diis
   SYM_IGNORE  TRUE
   print_input   true
   geom_opt_dmax   80
   pop_mulliken false
   XC_GRID 000075000302
$end

$molecule
0 3
N       0.6836402109     1.0961923148     2.3630749146
O       0.5669599178     2.2432103738     2.0671035121
O       1.6158477515     0.3672193112     2.3604649761
N       -0.4800226230     -0.9615550417     3.2859354273
O       0.1367231571     -1.2519668910     4.2348458874
O       -0.5781572843     0.6018890428     2.7888751725
$end
--------------------------------------------------------------
 ----------------------------------------------------------------
             Standard Nuclear Orientation (Angstroms)
    I     Atom           X                Y                Z
 ----------------------------------------------------------------
    1      N       0.6836402109     1.0961923148     2.3630749146
    2      O       0.5669599178     2.2432103738     2.0671035121
    3      O       1.6158477515     0.3672193112     2.3604649761
    4      N      -0.4800226230    -0.9615550417     3.2859354273
    5      O       0.1367231571    -1.2519668910     4.2348458874
    6      O      -0.5781572843     0.6018890428     2.7888751725
 ----------------------------------------------------------------
 Nuclear Repulsion Energy =         233.88361458 hartrees
 There are       24 alpha and       22 beta electrons
 Requested basis set is 6-311+G(2df,2pd)
 There are 48 shells and 204 basis functions

 Total QAlloc Memory Limit   2000 MB
 Mega-Array Size       188 MB
 MEM_STATIC part       192 MB

                       Distance Matrix (Angstroms)
             N (  1)   O (  2)   O (  3)   N (  4)   O (  5)
   O (  2)  1.190321
   O (  3)  1.183393  2.169232
   N (  4)  2.537737  3.585003  2.648549
   O (  5)  3.052294  4.135272  2.884940  1.168394
   O (  6)  1.420484  2.127483  2.247724  1.643489  2.457370
 
 A cutoff of  1.0D-09 yielded   1037 shell pairs
 There are     19350 function pairs (     25419 Cartesian)
 Smallest overlap matrix eigenvalue = 6.79E-04

 Scale SEOQF with 1.000000e-01/1.000000e-01/1.000000e-01

 Standard Electronic Orientation quadrupole field applied
 Nucleus-field energy     =    -0.0000000365 hartrees
 Requested basis set is 6-31G(d)
 There are 24 shells and 84 basis functions
 A cutoff of  1.0D-09 yielded    268 shell pairs
 There are      3534 function pairs (      4062 Cartesian)
 Smallest overlap matrix eigenvalue = 4.82E-03
 Guess from superposition of atomic densities
 Warning:  Energy on first SCF cycle will be non-variational
 SAD guess density has 46.000000 electrons
 Long-range K will be added via erf
 Coulomb attenuation parameter = 0.2 bohr**(-1)
 An unrestricted hybrid HF-DFT SCF calculation will be
 performed using Relaxed Constraint Minimization + Pulay DIIS
 Exchange:     0.2220 Hartree-Fock + 1.0000 wB97X-D + LR-HF
 Correlation:  1.0000 wB97X-D
 Using Euler-Maclaurin-Lebedev (75,302) quadrature formula
 Dispersion:   Grimme D
 SCF converges when DIIS error is below 1.0E-04
 using 6 threads for integral computing
 -------------------------------------------------------
 OpenMP Integral computing Module                
 Release: version 1.0, May 2013, Q-Chem Inc. Pittsburgh 
 -------------------------------------------------------
 using 6 threads for integral computing
 -------------------------------------------------------
 OpenMP Integral computing Module                
 Release: version 1.0, May 2013, Q-Chem Inc. Pittsburgh 
 -------------------------------------------------------
 ---------------------------------------
  Cycle       Energy         DIIS Error
 ---------------------------------------
    1    -411.0345143300      8.84E-02
    2    -409.6581877827      1.95E-02
    3    -409.7620362368      4.42E-03
    4    -409.9100763581      4.65E-03
    5    -409.9162481105      6.45E-04 Done RCA. Switching to DIIS
    6    -409.9245388318      5.50E-04
    7    -409.9249752349      1.25E-04
    8    -409.9250693541      6.72E-05 Convergence criterion met
 ---------------------------------------
 <S^2> = 2.0155
 SCF time:  CPU 14.55 s  wall 2.44 s
 SCF   energy in the small basis set = -409.92506935
 Total energy in the small basis set = -409.92506935
 ----------------------------------------------------
  Cycle       Energy    
 ----------------------------------------------------
    1     -41.7569973539     -4.18E+01
 Long-range K will be added via erf
 Coulomb attenuation parameter = 0.2 bohr**(-1)
 An unrestricted hybrid HF-DFT SCF calculation will be
 performed using Relaxed Constraint Minimization + Pulay DIIS
 Exchange:     0.2220 Hartree-Fock + 1.0000 wB97X-D + LR-HF
 Correlation:  1.0000 wB97X-D
 Using Euler-Maclaurin-Lebedev (75,302) quadrature formula
 Dispersion:   Grimme D
 SCF converges when DIIS error is below 1.0E-05
 Basis2 calculation detected. Using small basis as guess for larger.
 SCFMinFind is unable to tell whether the solution found is close.
 Resetting ReadMinima to 0 and attempting to follow guess.
 SCFMinFind following SCF Guess.
 using 6 threads for integral computing
 -------------------------------------------------------
 OpenMP Integral computing Module                
 Release: version 1.0, May 2013, Q-Chem Inc. Pittsburgh 
 -------------------------------------------------------
 using 6 threads for integral computing
 -------------------------------------------------------
 OpenMP Integral computing Module                
 Release: version 1.0, May 2013, Q-Chem Inc. Pittsburgh 
 -------------------------------------------------------
 ---------------------------------------
  Cycle       Energy         DIIS Error
 ---------------------------------------
    1    -410.0121281739      8.04E-03
    2    -410.0186437870      4.30E-03
    3    -410.0410093697      1.25E-03
    4    -410.0732855586      1.20E-03
    5    -410.0759233197      1.49E-04 Done RCA. Switching to DIIS
    6    -410.0799017593      1.55E-04
    7    -410.0800935906      5.84E-05
    8    -410.0802048703      2.44E-05
    9    -410.0802427486      1.32E-05
   10    -410.0802543180      6.62E-06 Convergence criterion met
 ---------------------------------------
 <S^2> = 2.0180
 SCF time:  CPU 66.69 s  wall 11.15 s
 SCF   energy in the final basis set = -410.08025432
 Total energy in the final basis set = -410.08025432
 
 --------------------------------------------------------------
 
                    Orbital Energies (a.u.)
 --------------------------------------------------------------
 
 Alpha MOs
 -- Occupied --
-19.4122 -19.4007 -19.3517 -19.3490 -14.7743 -14.6199  -1.4461  -1.3700
 -1.2612  -1.2079  -0.8753  -0.7767  -0.7206  -0.7186  -0.6871  -0.6581
 -0.6392  -0.6246  -0.5040  -0.4984  -0.4660  -0.4620  -0.4386  -0.3397
 -- Virtual --
 -0.0242   0.0109   0.0765   0.1134   0.1273   0.1363   0.1372   0.1703
  0.1785   0.1876   0.2271   0.2364   0.2443   0.2685   0.2838   0.2908
  0.3012   0.3238   0.3424   0.3459   0.3520   0.3583   0.3702   0.3841
  0.4062   0.4284   0.4414   0.4628   0.4740   0.5282   0.7476   0.7684
  0.7908   0.8321   0.8514   0.8795   0.9326   0.9421   0.9773   1.0173
  1.0265   1.0359   1.0422   1.0738   1.0796   1.0968   1.1125   1.1263
  1.1355   1.1415   1.1617   1.1917   1.2329   1.2374   1.2730   1.3253
  1.4307   1.4614   1.5240   1.5468   1.5681   1.5821   1.5933   1.6162
  1.6601   1.6740   1.7093   1.7934   1.8318   1.8824   1.9292   1.9521
  1.9754   2.1274   2.1923   2.2674   2.3309   2.3748   2.4222   2.4862
  2.5363   2.5651   2.6978   2.8052   3.5058   3.5316   3.5790   3.6082
  3.6427   3.6579   3.6839   3.7110   3.7267   3.7740   3.7872   3.8928
  3.9457   3.9819   4.0166   4.0709   4.1096   4.4226   4.4549   4.4919
  4.4936   4.5879   4.6459   4.6630   4.7059   4.7080   4.7354   4.7553
  4.8318   4.9103   4.9914   5.0027   5.0161   5.0239   5.0385   5.0465
  5.0686   5.0791   5.0911   5.1232   5.1281   5.1495   5.1554   5.1717
  5.2133   5.2823   5.3165   5.3749   5.4024   5.4327   5.4716   5.4991
  5.5146   5.5592   5.6276   5.6735   5.8251   5.8644   5.9846   6.1003
  6.3255   6.5315   6.6494   6.6553   6.7116   6.7288   6.7441   6.7650
  6.7887   6.8231   6.8774   6.9064   6.9419   6.9985   7.1011   7.1083
  7.1609   7.1689   7.1968   7.2722   7.3133   7.3576   7.4281   7.5663
  7.6688   7.6917   7.8127   7.8461   7.9082   8.2786  35.9172  36.1220
 49.9935  50.1633  50.2342  50.2645
 
 Beta MOs
 -- Occupied --
-19.3993 -19.3825 -19.3495 -19.3491 -14.7741 -14.6020  -1.4414  -1.3318
 -1.2584  -1.1751  -0.8310  -0.7460  -0.7173  -0.7037  -0.6742  -0.6072
 -0.5809  -0.5577  -0.4792  -0.4728  -0.4634  -0.4478
 -- Virtual --
 -0.1532  -0.0256  -0.0038   0.0626   0.0857   0.1214   0.1365   0.1400
  0.1424   0.1727   0.1844   0.1915   0.2286   0.2393   0.2477   0.2704
  0.2866   0.2945   0.3065   0.3251   0.3441   0.3473   0.3543   0.3598
  0.3732   0.3896   0.4100   0.4391   0.4451   0.4688   0.4897   0.5348
  0.7581   0.7753   0.8093   0.8521   0.8644   0.8836   0.9371   0.9497
  0.9876   1.0210   1.0433   1.0499   1.0518   1.0834   1.0856   1.1129
  1.1223   1.1331   1.1461   1.1576   1.1668   1.2044   1.2408   1.2539
  1.2859   1.3450   1.4438   1.4733   1.5296   1.5512   1.5709   1.5943
  1.6128   1.6389   1.6809   1.6877   1.7227   1.7959   1.8426   1.8950
  1.9349   1.9668   1.9890   2.1454   2.1997   2.2824   2.3462   2.3855
  2.4336   2.5023   2.5386   2.5698   2.7074   2.8090   3.5323   3.5659
  3.5938   3.6273   3.6569   3.6611   3.6980   3.7235   3.7370   3.8024
  3.8569   3.9111   3.9713   4.0038   4.0178   4.0823   4.1247   4.4257
  4.4581   4.4959   4.4986   4.6183   4.6519   4.6926   4.7325   4.7384
  4.7617   4.7942   4.8718   4.9567   5.0092   5.0215   5.0415   5.0454
  5.0545   5.0621   5.0841   5.0880   5.1051   5.1273   5.1633   5.1731
  5.1797   5.1977   5.2278   5.3096   5.3343   5.3938   5.4047   5.4467
  5.4852   5.5250   5.5412   5.5675   5.6488   5.6907   5.8311   5.8707
  6.0016   6.1367   6.3377   6.5340   6.6691   6.6983   6.7419   6.7672
  6.7887   6.8026   6.8055   6.8312   6.8794   6.9087   6.9751   7.0107
  7.1175   7.1294   7.1666   7.1998   7.2286   7.2786   7.3301   7.3727
  7.4536   7.5744   7.6965   7.7212   7.8223   7.8636   7.9159   8.2812
 35.9386  36.1224  50.0070  50.1801  50.2367  50.2643
 --------------------------------------------------------------
 
 -----------------------------------------------------------------
                    Cartesian Multipole Moments
 -----------------------------------------------------------------
    Charge (ESU x 10^10)
                -0.0000
    Dipole Moment (Debye)
         X      -0.5046      Y      -0.6376      Z       0.2445
       Tot       0.8491
    Quadrupole Moments (Debye-Ang)
        XX     -33.7524     XY       0.5544     YY     -33.7456
        XZ      -1.0271     YZ      -0.5845     ZZ     -29.9843
    Octopole Moments (Debye-Ang^2)
       XXX     -34.0567    XXY     -12.1661    XYY     -11.4892
       YYY     -42.5233    XXZ     -94.2943    XYZ       2.8520
       YYZ     -93.0734    XZZ     -11.8307    YZZ      -8.5154
       ZZZ    -263.8226
    Hexadecapole Moments (Debye-Ang^3)
      XXXX    -157.9959   XXXY     -42.4640   XXYY     -78.6921
      XYYY     -43.0206   YYYY    -330.7236   XXXZ     -69.8375
      XXYZ      -9.0067   XYYZ     -22.9068   YYYZ     -41.3281
      XXZZ    -309.3759   XYZZ      -1.5428   YYZZ    -331.9296
      XZZZ     -63.5971   YZZZ       0.4303   ZZZZ   -1646.8059
 -----------------------------------------------------------------
Archival summary:
1\1\centos77-c5\SP\ProcedureUnspecified\BasisUnspecified\42(3)\shihchen\MonJul1315:21:382020MonJul1315:21:382020\0\\#,ProcedureUnspecified,BasisUnspecified,\\0,3\N\O,1,1.18339\O,1,1.19032,2,132.087\O,1,1.42048,2,119.081,3,-179.712,0\N,4,1.64349,1,111.633,2,2.58945,0\O,5,1.16839,4,120.904,1,65.6949,0\\\@

 Total job time:  16.09s(wall), 85.75s(cpu) 
 Mon Jul 13 15:21:38 2020

        *************************************************************
        *                                                           *
        *  Thank you very much for using Q-Chem.  Have a nice day.  *
        *                                                           *
        *************************************************************


