                  Welcome to Q-Chem
     A Quantum Leap Into The Future Of Chemistry


 Q-Chem 5.3 (devel), Q-Chem, Inc., Pleasanton, CA (2020)

 Yihan Shao,  Zhengting Gan,  E. Epifanovsky,  A. T. B. Gilbert,  M. Wormit,  
 J. Kussmann,  A. W. Lange,  A. Behn,  Jia Deng,  Xintian Feng,  D. Ghosh,  
 M. Goldey,  P. R. Horn,  L. D. Jacobson,  I. Kaliman,  T. Kus,  A. Landau,  
 Jie Liu,  E. I. Proynov,  R. M. Richard,  R. P. Steele,  E. J. Sundstrom,  
 H. L. Woodcock III,  P. M. Zimmerman,  D. Zuev,  B. Alam,  B. Albrecht,  
 E. Alguire,  S. A. Baeppler,  D. Barton,  Z. Benda,  Y. A. Bernard,  
 E. J. Berquist,  K. B. Bravaya,  H. Burton,  K. Carter-Fenk,  D. Casanova,  
 Chun-Min Chang,  Yunqing Chen,  A. Chien,  K. D. Closser,  M. P. Coons,  
 S. Coriani,  S. Dasgupta,  A. L. Dempwolff,  M. Diedenhofen,  Hainam Do,  
 R. G. Edgar,  Po-Tung Fang,  S. Faraji,  S. Fatehi,  Qingguo Feng,  
 J. Fosso-Tande,  J. Gayvert,  Qinghui Ge,  A. Ghysels,  G. Gidofalvi,  
 J. Gomes,  J. Gonthier,  A. Gunina,  D. Hait,  M. W. D. Hanson-Heine,  
 P. H. P. Harbach,  A. W. Hauser,  M. F. Herbst,  J. E. Herr,  
 E. G. Hohenstein,  Z. C. Holden,  Kerwin Hui,  B. C. Huynh,  T.-C. Jagau,  
 Hyunjun Ji,  B. Kaduk,  K. Khistyaev,  Jaehoon Kim,  P. Klunzinger,  K. Koh,  
 D. Kosenkov,  L. Koulias,  T. Kowalczyk,  C. M. Krauter,  A. Kunitsa,  
 Ka Un Lao,  A. Laurent,  K. V. Lawler,  Joonho Lee,  D. Lefrancois,  
 S. Lehtola,  D. S. Levine,  Yi-Pei Li,  You-Sheng Lin,  Fenglai Liu,  
 Kuan-Yu Liu,  E. Livshits,  M. Loipersberger,  A. Luenser,  P. Manohar,  
 E. Mansoor,  S. F. Manzer,  Shan-Ping Mao,  Yuezhi Mao,  N. Mardirossian,  
 A. V. Marenich,  T. Markovich,  L. A. Martinez-Martinez,  S. A. Maurer,  
 N. J. Mayhall,  S. C. McKenzie,  J.-M. Mewes,  P. Morgante,  A. F. Morrison,  
 J. W. Mullinax,  K. Nanda,  T. S. Nguyen-Beck,  R. Olivares-Amaya,  
 K. J. Oosterbaan,  J. A. Parkhill,  S. K. Paul,  F. Pavosevic,  Zheng Pei,  
 T. M. Perrine,  F. Plasser,  P. Pokhilko,  S. Prager,  A. Prociuk,  
 E. Ramos,  B. Rana,  D. R. Rehn,  F. Rob,  M. Scheurer,  M. Schneider,  
 N. Sergueev,  S. M. Sharada,  S. Sharma,  D. W. Small,  T. Stauch,  
 C. J. Stein,  T. Stein,  Yu-Chuan Su,  S. P. Veccham,  Zhen Tao,  
 A. J. W. Thom,  A. Tkatchenko,  T. Tsuchimochi,  N. M. Tubman,  L. Vogt,  
 M. L. Vidal,  O. Vydrov,  M. A. Watson,  J. Wenzel,  M. de Wergifosse,  
 T. A. Wesolowski,  A. White,  J. Witte,  A. Yamada,  Jun Yang,  K. Yao,  
 S. Yeganeh,  S. R. Yost,  Zhi-Qiang You,  A. Zech,  Igor Ying Zhang,  
 Xing Zhang,  Yan Zhao,  Ying Zhu,  B. R. Brooks,  G. K. L. Chan,  
 C. J. Cramer,  M. S. Gordon,  W. J. Hehre,  A. Klamt,  M. W. Schmidt,  
 C. D. Sherrill,  D. G. Truhlar,  A. Aspuru-Guzik,  R. Baer,  A. T. Bell,  
 N. A. Besley,  Jeng-Da Chai,  A. E. DePrince, III,  R. A. DiStasio Jr.,  
 A. Dreuw,  B. D. Dunietz,  T. R. Furlani,  Chao-Ping Hsu,  Yousung Jung,  
 Jing Kong,  D. S. Lambrecht,  WanZhen Liang,  C. Ochsenfeld,  
 V. A. Rassolov,  L. V. Slipchenko,  J. E. Subotnik,  T. Van Voorhis,  
 J. M. Herbert,  A. I. Krylov,  P. M. W. Gill,  M. Head-Gordon

 Contributors to earlier versions of Q-Chem not listed above: 
 R. D. Adamson,  B. Austin,  J. Baker,  G. J. O. Beran,  K. Brandhorst,  
 S. T. Brown,  E. F. C. Byrd,  A. K. Chakraborty,  C.-L. Cheng,  
 Siu Hung Chien,  D. M. Chipman,  D. L. Crittenden,  H. Dachsel,  
 R. J. Doerksen,  A. D. Dutoi,  L. Fusti-Molnar,  W. A. Goddard III,  
 A. Golubeva-Zadorozhnaya,  S. R. Gwaltney,  G. Hawkins,  A. Heyden,  
 S. Hirata,  G. Kedziora,  F. J. Keil,  C. Kelley,  Jihan Kim,  R. A. King,  
 R. Z. Khaliullin,  P. P. Korambath,  W. Kurlancheek,  A. M. Lee,  M. S. Lee,  
 S. V. Levchenko,  Ching Yeh Lin,  D. Liotard,  R. C. Lochan,  I. Lotan,  
 P. E. Maslen,  N. Nair,  D. P. O'Neill,  D. Neuhauser,  E. Neuscamman,  
 C. M. Oana,  R. Olson,  B. Peters,  R. Peverati,  P. A. Pieniazek,  
 Y. M. Rhee,  J. Ritchie,  M. A. Rohrdanz,  E. Rosta,  N. J. Russ,  
 H. F. Schaefer III,  N. E. Schultz,  N. Shenvi,  A. C. Simmonett,  A. Sodt,  
 D. Stuck,  K. S. Thanthiriwatte,  V. Vanovschi,  Tao Wang,  A. Warshel,  
 C. F. Williams,  Q. Wu,  X. Xu,  W. Zhang

 Please cite Q-Chem as follows:
 Y. Shao et al., Mol. Phys. 113, 184-215 (2015)
 DOI: 10.1080/00268976.2014.952696

 Q-Chem 5.3.0 for Intel X86 EM64T Linux

 Parts of Q-Chem use Armadillo 9.800.1 (Horizon Scraper).
 http://arma.sourceforge.net/

 Q-Chem begins on Mon Jul 13 15:02:43 2020  

Host: centos77-c5
0

     Scratch files written to /tmp/29025.centos77-h1/qchem108070//
Processing $rem in /opt/qchem-5.3.0-intel2020u1//config/preferences:
Processing $rem in /home/shihchengli/.qchemrc:

Checking the input file for inconsistencies... 	...done.

--------------------------------------------------------------
User input:
--------------------------------------------------------------
$rem
   JOBTYPE  sp
   EXCHANGE   omegaB97X-D
   BASIS   6-311+G(2df,2pd)
   UNRESTRICTED   True
   max_scf_cycles   250
   geom_opt_max_cycles   1500
   basis2 6-31G*
   scf_algorithm rca_diis
   SYM_IGNORE  TRUE
   print_input   true
   geom_opt_dmax   80
   pop_mulliken false
   XC_GRID 000075000302
$end

$molecule
0 3
N       0.7244906988     1.1906803334     2.4625729037
O       0.1743257131     2.1809781649     2.0972066723
O       1.7575297898     1.0139559749     3.0121346273
N       0.0674328153     -1.1295549433     3.2530728082
O       -0.6921286436     -1.2310730889     4.1350625570
O       -0.0866592433     0.0700026689     2.1402503216
$end
--------------------------------------------------------------
 ----------------------------------------------------------------
             Standard Nuclear Orientation (Angstroms)
    I     Atom           X                Y                Z
 ----------------------------------------------------------------
    1      N       0.7244906988     1.1906803334     2.4625729037
    2      O       0.1743257131     2.1809781649     2.0972066723
    3      O       1.7575297898     1.0139559749     3.0121346273
    4      N       0.0674328153    -1.1295549433     3.2530728082
    5      O      -0.6921286436    -1.2310730889     4.1350625570
    6      O      -0.0866592433     0.0700026689     2.1402503216
 ----------------------------------------------------------------
 Nuclear Repulsion Energy =         231.10670296 hartrees
 There are       24 alpha and       22 beta electrons
 Requested basis set is 6-311+G(2df,2pd)
 There are 48 shells and 204 basis functions

 Total QAlloc Memory Limit   2000 MB
 Mega-Array Size       188 MB
 MEM_STATIC part       192 MB

                       Distance Matrix (Angstroms)
             N (  1)   O (  2)   O (  3)   N (  4)   O (  5)
   O (  2)  1.190321
   O (  3)  1.183393  2.169232
   N (  4)  2.537737  3.508145  2.740277
   O (  5)  3.266332  4.067640  3.507413  1.168394
   O (  6)  1.420484  2.127483  2.247724  1.643489  2.457370
 
 A cutoff of  1.0D-09 yielded   1020 shell pairs
 There are     19049 function pairs (     25007 Cartesian)
 Smallest overlap matrix eigenvalue = 6.88E-04

 Scale SEOQF with 1.000000e-01/1.000000e-01/1.000000e-01

 Standard Electronic Orientation quadrupole field applied
 Nucleus-field energy     =    -0.0000000359 hartrees
 Requested basis set is 6-31G(d)
 There are 24 shells and 84 basis functions
 A cutoff of  1.0D-09 yielded    267 shell pairs
 There are      3518 function pairs (      4046 Cartesian)
 Smallest overlap matrix eigenvalue = 4.84E-03
 Guess from superposition of atomic densities
 Warning:  Energy on first SCF cycle will be non-variational
 SAD guess density has 46.000000 electrons
 Long-range K will be added via erf
 Coulomb attenuation parameter = 0.2 bohr**(-1)
 An unrestricted hybrid HF-DFT SCF calculation will be
 performed using Relaxed Constraint Minimization + Pulay DIIS
 Exchange:     0.2220 Hartree-Fock + 1.0000 wB97X-D + LR-HF
 Correlation:  1.0000 wB97X-D
 Using Euler-Maclaurin-Lebedev (75,302) quadrature formula
 Dispersion:   Grimme D
 SCF converges when DIIS error is below 1.0E-04
 using 6 threads for integral computing
 -------------------------------------------------------
 OpenMP Integral computing Module                
 Release: version 1.0, May 2013, Q-Chem Inc. Pittsburgh 
 -------------------------------------------------------
 using 6 threads for integral computing
 -------------------------------------------------------
 OpenMP Integral computing Module                
 Release: version 1.0, May 2013, Q-Chem Inc. Pittsburgh 
 -------------------------------------------------------
 ---------------------------------------
  Cycle       Energy         DIIS Error
 ---------------------------------------
    1    -411.0313799132      8.84E-02
    2    -409.6550025492      1.96E-02
    3    -409.7596055577      4.44E-03
    4    -409.9088709970      4.72E-03
    5    -409.9151507754      6.52E-04 Done RCA. Switching to DIIS
    6    -409.9235253348      5.53E-04
    7    -409.9239400824      1.09E-04
    8    -409.9240220527      6.87E-05 Convergence criterion met
 ---------------------------------------
 <S^2> = 2.0161
 SCF time:  CPU 14.38 s  wall 2.41 s
 SCF   energy in the small basis set = -409.92402205
 Total energy in the small basis set = -409.92402205
 ----------------------------------------------------
  Cycle       Energy    
 ----------------------------------------------------
    1     -41.7565947644     -4.18E+01
 Long-range K will be added via erf
 Coulomb attenuation parameter = 0.2 bohr**(-1)
 An unrestricted hybrid HF-DFT SCF calculation will be
 performed using Relaxed Constraint Minimization + Pulay DIIS
 Exchange:     0.2220 Hartree-Fock + 1.0000 wB97X-D + LR-HF
 Correlation:  1.0000 wB97X-D
 Using Euler-Maclaurin-Lebedev (75,302) quadrature formula
 Dispersion:   Grimme D
 SCF converges when DIIS error is below 1.0E-05
 Basis2 calculation detected. Using small basis as guess for larger.
 SCFMinFind is unable to tell whether the solution found is close.
 Resetting ReadMinima to 0 and attempting to follow guess.
 SCFMinFind following SCF Guess.
 using 6 threads for integral computing
 -------------------------------------------------------
 OpenMP Integral computing Module                
 Release: version 1.0, May 2013, Q-Chem Inc. Pittsburgh 
 -------------------------------------------------------
 using 6 threads for integral computing
 -------------------------------------------------------
 OpenMP Integral computing Module                
 Release: version 1.0, May 2013, Q-Chem Inc. Pittsburgh 
 -------------------------------------------------------
 ---------------------------------------
  Cycle       Energy         DIIS Error
 ---------------------------------------
    1    -410.0102442981      8.05E-03
    2    -410.0170346972      4.32E-03
    3    -410.0398532493      1.23E-03
    4    -410.0725712948      1.24E-03
    5    -410.0751420855      1.61E-04 Done RCA. Switching to DIIS
    6    -410.0789675032      1.62E-04
    7    -410.0791695830      5.64E-05
    8    -410.0792876459      2.88E-05
    9    -410.0793372453      1.57E-05
   10    -410.0793602132      8.51E-06 Convergence criterion met
 ---------------------------------------
 <S^2> = 2.0185
 SCF time:  CPU 65.46 s  wall 10.94 s
 SCF   energy in the final basis set = -410.07936021
 Total energy in the final basis set = -410.07936021
 
 --------------------------------------------------------------
 
                    Orbital Energies (a.u.)
 --------------------------------------------------------------
 
 Alpha MOs
 -- Occupied --
-19.4118 -19.3974 -19.3522 -19.3496 -14.7741 -14.6207  -1.4459  -1.3680
 -1.2610  -1.2089  -0.8743  -0.7776  -0.7236  -0.7178  -0.6842  -0.6534
 -0.6346  -0.6312  -0.5123  -0.4913  -0.4665  -0.4605  -0.4385  -0.3399
 -- Virtual --
 -0.0333   0.0156   0.0763   0.1172   0.1242   0.1327   0.1388   0.1742
  0.1795   0.1828   0.2280   0.2367   0.2493   0.2679   0.2790   0.2875
  0.2990   0.3258   0.3384   0.3507   0.3537   0.3586   0.3718   0.3953
  0.4031   0.4333   0.4451   0.4547   0.4919   0.5236   0.7089   0.7826
  0.8049   0.8306   0.8605   0.8638   0.9184   0.9479   0.9732   1.0046
  1.0171   1.0401   1.0627   1.0630   1.0898   1.0934   1.1118   1.1345
  1.1420   1.1494   1.1703   1.1858   1.2107   1.2569   1.2730   1.3209
  1.4180   1.4636   1.5313   1.5513   1.5610   1.5789   1.6023   1.6109
  1.6375   1.6742   1.7064   1.7684   1.8171   1.8728   1.9310   1.9678
  2.0239   2.1316   2.1695   2.2271   2.3324   2.3699   2.4109   2.4991
  2.5170   2.5638   2.6758   2.7962   3.4662   3.5401   3.5542   3.6278
  3.6479   3.6733   3.6825   3.7116   3.7616   3.7673   3.7886   3.9208
  3.9467   3.9909   4.0141   4.0688   4.0790   4.4159   4.4511   4.4673
  4.5114   4.5910   4.6417   4.6566   4.6841   4.7100   4.7347   4.7771
  4.8373   4.8937   4.9964   5.0102   5.0260   5.0314   5.0389   5.0447
  5.0652   5.0682   5.0882   5.1102   5.1276   5.1406   5.1525   5.1760
  5.2091   5.2537   5.3082   5.3550   5.4089   5.4248   5.4777   5.4935
  5.5444   5.5638   5.6388   5.6750   5.8101   5.8918   5.9877   6.1202
  6.3047   6.5373   6.6360   6.6550   6.7115   6.7291   6.7472   6.7672
  6.7944   6.8162   6.8515   6.9066   6.9451   7.0420   7.0874   7.1248
  7.1571   7.1640   7.2111   7.2365   7.2952   7.3455   7.4539   7.5439
  7.6520   7.6957   7.8045   7.8521   7.9073   8.2752  35.9128  36.1201
 49.9781  50.1674  50.2320  50.2570
 
 Beta MOs
 -- Occupied --
-19.3980 -19.3802 -19.3501 -19.3498 -14.7739 -14.6025  -1.4412  -1.3308
 -1.2584  -1.1743  -0.8314  -0.7464  -0.7168  -0.7040  -0.6741  -0.6007
 -0.5848  -0.5596  -0.4834  -0.4706  -0.4647  -0.4431
 -- Virtual --
 -0.1492  -0.0272  -0.0081   0.0596   0.0873   0.1230   0.1358   0.1387
  0.1421   0.1760   0.1836   0.1871   0.2292   0.2394   0.2519   0.2704
  0.2800   0.2908   0.3064   0.3285   0.3393   0.3527   0.3551   0.3604
  0.3752   0.4055   0.4077   0.4375   0.4499   0.4589   0.5083   0.5301
  0.7209   0.7953   0.8114   0.8487   0.8661   0.8796   0.9225   0.9534
  0.9820   1.0178   1.0282   1.0502   1.0751   1.0815   1.0967   1.1026
  1.1240   1.1433   1.1456   1.1698   1.1848   1.1938   1.2235   1.2705
  1.2834   1.3329   1.4317   1.4750   1.5386   1.5577   1.5672   1.5961
  1.6119   1.6281   1.6557   1.6997   1.7141   1.7746   1.8236   1.8857
  1.9409   1.9768   2.0410   2.1545   2.1769   2.2374   2.3441   2.3813
  2.4262   2.5117   2.5204   2.5716   2.6839   2.7997   3.4859   3.5766
  3.5836   3.6425   3.6607   3.6795   3.6918   3.7224   3.7754   3.7979
  3.8552   3.9391   3.9737   4.0092   4.0158   4.0831   4.0957   4.4185
  4.4560   4.4715   4.5143   4.6201   4.6457   4.6947   4.7191   4.7328
  4.7591   4.8166   4.8762   4.9423   5.0159   5.0350   5.0417   5.0466
  5.0541   5.0628   5.0803   5.0865   5.0975   5.1209   5.1415   5.1689
  5.1789   5.2084   5.2251   5.2806   5.3257   5.3707   5.4119   5.4388
  5.4931   5.5180   5.5693   5.5748   5.6572   5.6933   5.8152   5.8994
  6.0045   6.1595   6.3154   6.5395   6.6577   6.6999   6.7408   6.7698
  6.7900   6.7994   6.8052   6.8231   6.8571   6.9077   6.9679   7.0619
  7.1140   7.1458   7.1662   7.1939   7.2380   7.2494   7.3147   7.3512
  7.4796   7.5501   7.6822   7.7242   7.8131   7.8677   7.9173   8.2774
 35.9348  36.1203  49.9927  50.1834  50.2342  50.2569
 --------------------------------------------------------------
 
 -----------------------------------------------------------------
                    Cartesian Multipole Moments
 -----------------------------------------------------------------
    Charge (ESU x 10^10)
                -0.0000
    Dipole Moment (Debye)
         X      -0.1410      Y      -0.7307      Z       0.0219
       Tot       0.7445
    Quadrupole Moments (Debye-Ang)
        XX     -33.5037     XY      -0.5823     YY     -33.6430
        XZ      -1.2976     YZ      -1.4935     ZZ     -31.6783
    Octopole Moments (Debye-Ang^2)
       XXX     -35.0787    XXY     -12.6731    XYY     -10.5465
       YYY     -41.9149    XXZ     -97.2091    XYZ      -3.7132
       YYZ     -93.3013    XZZ     -14.8290    YZZ     -12.8094
       ZZZ    -271.9215
    Hexadecapole Moments (Debye-Ang^3)
      XXXX    -162.0289   XXXY     -63.7005   XXYY     -85.0752
      XYYY     -63.2734   YYYY    -355.8939   XXXZ     -88.0038
      XXYZ     -16.4734   XYYZ     -25.4346   YYYZ     -51.7593
      XXZZ    -326.4790   XYZZ     -35.7881   YYZZ    -335.9487
      XZZZ     -84.6922   YZZZ     -27.2127   ZZZZ   -1674.4313
 -----------------------------------------------------------------
Archival summary:
1\1\centos77-c5\SP\ProcedureUnspecified\BasisUnspecified\42(3)\shihchen\MonJul1315:02:592020MonJul1315:02:592020\0\\#,ProcedureUnspecified,BasisUnspecified,\\0,3\N\O,1,1.18339\O,1,1.19032,2,132.087\O,1,1.42048,2,119.081,3,-179.712,0\N,4,1.64349,1,111.633,2,32.5894,0\O,5,1.16839,4,120.904,1,95.6949,0\\\@

 Total job time:  15.71s(wall), 83.90s(cpu) 
 Mon Jul 13 15:02:59 2020

        *************************************************************
        *                                                           *
        *  Thank you very much for using Q-Chem.  Have a nice day.  *
        *                                                           *
        *************************************************************


