                  Welcome to Q-Chem
     A Quantum Leap Into The Future Of Chemistry


 Q-Chem 5.3 (devel), Q-Chem, Inc., Pleasanton, CA (2020)

 Yihan Shao,  Zhengting Gan,  E. Epifanovsky,  A. T. B. Gilbert,  M. Wormit,  
 J. Kussmann,  A. W. Lange,  A. Behn,  Jia Deng,  Xintian Feng,  D. Ghosh,  
 M. Goldey,  P. R. Horn,  L. D. Jacobson,  I. Kaliman,  T. Kus,  A. Landau,  
 Jie Liu,  E. I. Proynov,  R. M. Richard,  R. P. Steele,  E. J. Sundstrom,  
 H. L. Woodcock III,  P. M. Zimmerman,  D. Zuev,  B. Alam,  B. Albrecht,  
 E. Alguire,  S. A. Baeppler,  D. Barton,  Z. Benda,  Y. A. Bernard,  
 E. J. Berquist,  K. B. Bravaya,  H. Burton,  K. Carter-Fenk,  D. Casanova,  
 Chun-Min Chang,  Yunqing Chen,  A. Chien,  K. D. Closser,  M. P. Coons,  
 S. Coriani,  S. Dasgupta,  A. L. Dempwolff,  M. Diedenhofen,  Hainam Do,  
 R. G. Edgar,  Po-Tung Fang,  S. Faraji,  S. Fatehi,  Qingguo Feng,  
 J. Fosso-Tande,  J. Gayvert,  Qinghui Ge,  A. Ghysels,  G. Gidofalvi,  
 J. Gomes,  J. Gonthier,  A. Gunina,  D. Hait,  M. W. D. Hanson-Heine,  
 P. H. P. Harbach,  A. W. Hauser,  M. F. Herbst,  J. E. Herr,  
 E. G. Hohenstein,  Z. C. Holden,  Kerwin Hui,  B. C. Huynh,  T.-C. Jagau,  
 Hyunjun Ji,  B. Kaduk,  K. Khistyaev,  Jaehoon Kim,  P. Klunzinger,  K. Koh,  
 D. Kosenkov,  L. Koulias,  T. Kowalczyk,  C. M. Krauter,  A. Kunitsa,  
 Ka Un Lao,  A. Laurent,  K. V. Lawler,  Joonho Lee,  D. Lefrancois,  
 S. Lehtola,  D. S. Levine,  Yi-Pei Li,  You-Sheng Lin,  Fenglai Liu,  
 Kuan-Yu Liu,  E. Livshits,  M. Loipersberger,  A. Luenser,  P. Manohar,  
 E. Mansoor,  S. F. Manzer,  Shan-Ping Mao,  Yuezhi Mao,  N. Mardirossian,  
 A. V. Marenich,  T. Markovich,  L. A. Martinez-Martinez,  S. A. Maurer,  
 N. J. Mayhall,  S. C. McKenzie,  J.-M. Mewes,  P. Morgante,  A. F. Morrison,  
 J. W. Mullinax,  K. Nanda,  T. S. Nguyen-Beck,  R. Olivares-Amaya,  
 K. J. Oosterbaan,  J. A. Parkhill,  S. K. Paul,  F. Pavosevic,  Zheng Pei,  
 T. M. Perrine,  F. Plasser,  P. Pokhilko,  S. Prager,  A. Prociuk,  
 E. Ramos,  B. Rana,  D. R. Rehn,  F. Rob,  M. Scheurer,  M. Schneider,  
 N. Sergueev,  S. M. Sharada,  S. Sharma,  D. W. Small,  T. Stauch,  
 C. J. Stein,  T. Stein,  Yu-Chuan Su,  S. P. Veccham,  Zhen Tao,  
 A. J. W. Thom,  A. Tkatchenko,  T. Tsuchimochi,  N. M. Tubman,  L. Vogt,  
 M. L. Vidal,  O. Vydrov,  M. A. Watson,  J. Wenzel,  M. de Wergifosse,  
 T. A. Wesolowski,  A. White,  J. Witte,  A. Yamada,  Jun Yang,  K. Yao,  
 S. Yeganeh,  S. R. Yost,  Zhi-Qiang You,  A. Zech,  Igor Ying Zhang,  
 Xing Zhang,  Yan Zhao,  Ying Zhu,  B. R. Brooks,  G. K. L. Chan,  
 C. J. Cramer,  M. S. Gordon,  W. J. Hehre,  A. Klamt,  M. W. Schmidt,  
 C. D. Sherrill,  D. G. Truhlar,  A. Aspuru-Guzik,  R. Baer,  A. T. Bell,  
 N. A. Besley,  Jeng-Da Chai,  A. E. DePrince, III,  R. A. DiStasio Jr.,  
 A. Dreuw,  B. D. Dunietz,  T. R. Furlani,  Chao-Ping Hsu,  Yousung Jung,  
 Jing Kong,  D. S. Lambrecht,  WanZhen Liang,  C. Ochsenfeld,  
 V. A. Rassolov,  L. V. Slipchenko,  J. E. Subotnik,  T. Van Voorhis,  
 J. M. Herbert,  A. I. Krylov,  P. M. W. Gill,  M. Head-Gordon

 Contributors to earlier versions of Q-Chem not listed above: 
 R. D. Adamson,  B. Austin,  J. Baker,  G. J. O. Beran,  K. Brandhorst,  
 S. T. Brown,  E. F. C. Byrd,  A. K. Chakraborty,  C.-L. Cheng,  
 Siu Hung Chien,  D. M. Chipman,  D. L. Crittenden,  H. Dachsel,  
 R. J. Doerksen,  A. D. Dutoi,  L. Fusti-Molnar,  W. A. Goddard III,  
 A. Golubeva-Zadorozhnaya,  S. R. Gwaltney,  G. Hawkins,  A. Heyden,  
 S. Hirata,  G. Kedziora,  F. J. Keil,  C. Kelley,  Jihan Kim,  R. A. King,  
 R. Z. Khaliullin,  P. P. Korambath,  W. Kurlancheek,  A. M. Lee,  M. S. Lee,  
 S. V. Levchenko,  Ching Yeh Lin,  D. Liotard,  R. C. Lochan,  I. Lotan,  
 P. E. Maslen,  N. Nair,  D. P. O'Neill,  D. Neuhauser,  E. Neuscamman,  
 C. M. Oana,  R. Olson,  B. Peters,  R. Peverati,  P. A. Pieniazek,  
 Y. M. Rhee,  J. Ritchie,  M. A. Rohrdanz,  E. Rosta,  N. J. Russ,  
 H. F. Schaefer III,  N. E. Schultz,  N. Shenvi,  A. C. Simmonett,  A. Sodt,  
 D. Stuck,  K. S. Thanthiriwatte,  V. Vanovschi,  Tao Wang,  A. Warshel,  
 C. F. Williams,  Q. Wu,  X. Xu,  W. Zhang

 Please cite Q-Chem as follows:
 Y. Shao et al., Mol. Phys. 113, 184-215 (2015)
 DOI: 10.1080/00268976.2014.952696

 Q-Chem 5.3.0 for Intel X86 EM64T Linux

 Parts of Q-Chem use Armadillo 9.800.1 (Horizon Scraper).
 http://arma.sourceforge.net/

 Q-Chem begins on Mon Jul 13 15:09:45 2020  

Host: centos77-c5
0

     Scratch files written to /tmp/29025.centos77-h1/qchem107796//
Processing $rem in /opt/qchem-5.3.0-intel2020u1//config/preferences:
Processing $rem in /home/shihchengli/.qchemrc:

Checking the input file for inconsistencies... 	...done.

--------------------------------------------------------------
User input:
--------------------------------------------------------------
$rem
   JOBTYPE  sp
   EXCHANGE   omegaB97X-D
   BASIS   6-311+G(2df,2pd)
   UNRESTRICTED   True
   max_scf_cycles   250
   geom_opt_max_cycles   1500
   basis2 6-31G*
   scf_algorithm rca_diis
   SYM_IGNORE  TRUE
   print_input   true
   geom_opt_dmax   80
   pop_mulliken false
   XC_GRID 000075000302
$end

$molecule
0 3
N       0.9263206110     1.1349114565     2.6408362978
O       0.9697063135     1.9768332263     3.4811631412
O       0.9019026079     1.1941732066     1.4591801902
N       -0.6258856745     -0.6758125926     3.5080392531
O       -1.1360210937     -1.3959704632     2.7423500497
O       0.9089683660     -0.1391457237     3.2687309580
$end
--------------------------------------------------------------
 ----------------------------------------------------------------
             Standard Nuclear Orientation (Angstroms)
    I     Atom           X                Y                Z
 ----------------------------------------------------------------
    1      N       0.9263206110     1.1349114565     2.6408362978
    2      O       0.9697063135     1.9768332263     3.4811631412
    3      O       0.9019026079     1.1941732066     1.4591801902
    4      N      -0.6258856745    -0.6758125926     3.5080392531
    5      O      -1.1360210937    -1.3959704632     2.7423500497
    6      O       0.9089683660    -0.1391457237     3.2687309580
 ----------------------------------------------------------------
 Nuclear Repulsion Energy =         230.74370442 hartrees
 There are       24 alpha and       22 beta electrons
 Requested basis set is 6-311+G(2df,2pd)
 There are 48 shells and 204 basis functions

 Total QAlloc Memory Limit   2000 MB
 Mega-Array Size       188 MB
 MEM_STATIC part       192 MB

                       Distance Matrix (Angstroms)
             N (  1)   O (  2)   O (  3)   N (  4)   O (  5)
   O (  2)  1.190321
   O (  3)  1.183393  2.169232
   N (  4)  2.537737  3.095669  3.166829
   O (  5)  3.266332  4.044223  3.536736  1.168394
   O (  6)  1.420484  2.127483  2.247724  1.643489  2.457370
 
 A cutoff of  1.0D-09 yielded   1021 shell pairs
 There are     19049 function pairs (     24997 Cartesian)
 Smallest overlap matrix eigenvalue = 3.56E-04

 Scale SEOQF with 1.000000e-01/1.000000e-01/1.000000e-01

 Standard Electronic Orientation quadrupole field applied
 Nucleus-field energy     =    -0.0000000358 hartrees
 Requested basis set is 6-31G(d)
 There are 24 shells and 84 basis functions
 A cutoff of  1.0D-09 yielded    264 shell pairs
 There are      3504 function pairs (      4030 Cartesian)
 Smallest overlap matrix eigenvalue = 5.19E-03
 Guess from superposition of atomic densities
 Warning:  Energy on first SCF cycle will be non-variational
 SAD guess density has 46.000000 electrons
 Long-range K will be added via erf
 Coulomb attenuation parameter = 0.2 bohr**(-1)
 An unrestricted hybrid HF-DFT SCF calculation will be
 performed using Relaxed Constraint Minimization + Pulay DIIS
 Exchange:     0.2220 Hartree-Fock + 1.0000 wB97X-D + LR-HF
 Correlation:  1.0000 wB97X-D
 Using Euler-Maclaurin-Lebedev (75,302) quadrature formula
 Dispersion:   Grimme D
 SCF converges when DIIS error is below 1.0E-04
 using 6 threads for integral computing
 -------------------------------------------------------
 OpenMP Integral computing Module                
 Release: version 1.0, May 2013, Q-Chem Inc. Pittsburgh 
 -------------------------------------------------------
 using 6 threads for integral computing
 -------------------------------------------------------
 OpenMP Integral computing Module                
 Release: version 1.0, May 2013, Q-Chem Inc. Pittsburgh 
 -------------------------------------------------------
 ---------------------------------------
  Cycle       Energy         DIIS Error
 ---------------------------------------
    1    -411.0289847589      8.84E-02
    2    -409.6321547387      1.98E-02
    3    -409.7422898269      4.14E-03
    4    -409.8971596281      4.33E-03
    5    -409.9025540584      5.83E-04 Done RCA. Switching to DIIS
    6    -409.9099696370      4.11E-04
    7    -409.9103512979      1.36E-04
    8    -409.9104512969      7.86E-05 Convergence criterion met
 ---------------------------------------
 <S^2> = 2.0166
 SCF time:  CPU 14.25 s  wall 2.39 s
 SCF   energy in the small basis set = -409.91045130
 Total energy in the small basis set = -409.91045130
 ----------------------------------------------------
  Cycle       Energy    
 ----------------------------------------------------
    1     -41.7622964282     -4.18E+01
 Long-range K will be added via erf
 Coulomb attenuation parameter = 0.2 bohr**(-1)
 An unrestricted hybrid HF-DFT SCF calculation will be
 performed using Relaxed Constraint Minimization + Pulay DIIS
 Exchange:     0.2220 Hartree-Fock + 1.0000 wB97X-D + LR-HF
 Correlation:  1.0000 wB97X-D
 Using Euler-Maclaurin-Lebedev (75,302) quadrature formula
 Dispersion:   Grimme D
 SCF converges when DIIS error is below 1.0E-05
 Basis2 calculation detected. Using small basis as guess for larger.
 SCFMinFind is unable to tell whether the solution found is close.
 Resetting ReadMinima to 0 and attempting to follow guess.
 SCFMinFind following SCF Guess.
 using 6 threads for integral computing
 -------------------------------------------------------
 OpenMP Integral computing Module                
 Release: version 1.0, May 2013, Q-Chem Inc. Pittsburgh 
 -------------------------------------------------------
 using 6 threads for integral computing
 -------------------------------------------------------
 OpenMP Integral computing Module                
 Release: version 1.0, May 2013, Q-Chem Inc. Pittsburgh 
 -------------------------------------------------------
 ---------------------------------------
  Cycle       Energy         DIIS Error
 ---------------------------------------
    1    -409.9402079776      8.40E-03
    2    -409.9302938999      5.81E-03
    3    -409.9765057950      1.46E-03
    4    -410.0452436413      1.52E-03
    5    -410.0502849173      2.49E-04 Done RCA. Switching to DIIS
    6    -410.0586160065      2.93E-04
    7    -410.0604086564      1.34E-04
    8    -410.0623120458      1.20E-04
    9    -410.0634184093      8.61E-05
   10    -410.0645946072      6.71E-05
   11    -410.0657611314      4.54E-05
   12    -410.0662108859      3.70E-05
   13    -410.0663694137      1.32E-05
   14    -410.0664043719      9.13E-06 Convergence criterion met
 ---------------------------------------
 <S^2> = 2.0187
 SCF time:  CPU 87.85 s  wall 14.68 s
 SCF   energy in the final basis set = -410.06640437
 Total energy in the final basis set = -410.06640437
 
 --------------------------------------------------------------
 
                    Orbital Energies (a.u.)
 --------------------------------------------------------------
 
 Alpha MOs
 -- Occupied --
-19.4042 -19.4009 -19.3530 -19.3407 -14.7680 -14.6282  -1.4417  -1.3735
 -1.2573  -1.2030  -0.8771  -0.7779  -0.7274  -0.7124  -0.6745  -0.6549
 -0.6380  -0.6311  -0.5181  -0.4841  -0.4653  -0.4589  -0.4288  -0.3452
 -- Virtual --
 -0.0409   0.0150   0.0832   0.1166   0.1274   0.1328   0.1419   0.1710
  0.1755   0.1840   0.2297   0.2381   0.2471   0.2692   0.2802   0.2839
  0.2916   0.3305   0.3456   0.3536   0.3562   0.3632   0.3763   0.3859
  0.3921   0.4275   0.4561   0.4588   0.4978   0.5273   0.7199   0.7741
  0.7896   0.8363   0.8579   0.8648   0.9085   0.9299   0.9843   1.0093
  1.0233   1.0283   1.0680   1.0796   1.0848   1.0951   1.1057   1.1130
  1.1400   1.1608   1.1866   1.1955   1.2328   1.2469   1.3001   1.3278
  1.4103   1.4243   1.5234   1.5392   1.5518   1.5698   1.6105   1.6193
  1.6413   1.6793   1.7159   1.7783   1.8236   1.9156   1.9463   1.9510
  1.9912   2.1302   2.1867   2.2535   2.3027   2.3888   2.4440   2.4972
  2.5249   2.5441   2.6802   2.7911   3.4255   3.5303   3.5364   3.6071
  3.6593   3.6801   3.7093   3.7127   3.7650   3.7760   3.8754   3.9186
  3.9511   3.9827   4.0158   4.0379   4.0642   4.4196   4.4698   4.4805
  4.5047   4.5862   4.6195   4.6862   4.6897   4.7071   4.7122   4.7660
  4.8633   4.8720   5.0003   5.0060   5.0174   5.0324   5.0422   5.0433
  5.0703   5.0797   5.0924   5.1083   5.1363   5.1463   5.1660   5.1903
  5.1965   5.2617   5.2658   5.3647   5.4096   5.4205   5.4830   5.5015
  5.5162   5.6064   5.6132   5.6988   5.7967   5.9439   5.9843   6.1128
  6.3230   6.5348   6.6456   6.6582   6.6952   6.7229   6.7378   6.7664
  6.8119   6.8174   6.8589   6.9100   6.9586   7.0574   7.0744   7.1175
  7.1493   7.1763   7.1962   7.2656   7.3099   7.3764   7.4485   7.5820
  7.5920   7.6972   7.8012   7.8510   7.9398   8.2864  35.9105  36.1297
 49.9743  50.1594  50.2409  50.2541
 
 Beta MOs
 -- Occupied --
-19.3876 -19.3865 -19.3523 -19.3401 -14.7682 -14.6098  -1.4377  -1.3354
 -1.2549  -1.1688  -0.8319  -0.7493  -0.7104  -0.7013  -0.6719  -0.5970
 -0.5850  -0.5653  -0.5013  -0.4675  -0.4579  -0.4212
 -- Virtual --
 -0.1624  -0.0295  -0.0095   0.0549   0.0946   0.1226   0.1353   0.1413
  0.1479   0.1742   0.1801   0.1880   0.2320   0.2415   0.2498   0.2734
  0.2816   0.2887   0.2954   0.3316   0.3479   0.3556   0.3582   0.3658
  0.3790   0.3883   0.4070   0.4309   0.4601   0.4633   0.5136   0.5287
  0.7358   0.7821   0.8026   0.8497   0.8656   0.8778   0.9237   0.9315
  0.9960   1.0145   1.0365   1.0447   1.0818   1.0880   1.0923   1.1087
  1.1133   1.1267   1.1484   1.1698   1.1930   1.2136   1.2465   1.2570
  1.3169   1.3422   1.4157   1.4347   1.5301   1.5519   1.5681   1.5788
  1.6210   1.6378   1.6642   1.6855   1.7343   1.7809   1.8312   1.9276
  1.9521   1.9732   1.9967   2.1500   2.1985   2.2681   2.3132   2.3960
  2.4651   2.5107   2.5277   2.5493   2.6832   2.7930   3.4423   3.5647
  3.5729   3.6189   3.6826   3.6917   3.7093   3.7250   3.7952   3.8393
  3.8936   3.9367   3.9554   4.0085   4.0282   4.0495   4.0767   4.4208
  4.4722   4.4907   4.5091   4.6114   4.6261   4.7126   4.7138   4.7358
  4.7537   4.8085   4.8945   4.9244   5.0192   5.0371   5.0434   5.0480
  5.0519   5.0550   5.0851   5.0875   5.1154   5.1273   5.1487   5.1681
  5.1978   5.2015   5.2221   5.2797   5.2944   5.3706   5.4240   5.4326
  5.4977   5.5191   5.5354   5.6293   5.6363   5.7135   5.7999   5.9680
  5.9927   6.1440   6.3299   6.5378   6.6713   6.6977   6.7229   6.7692
  6.7847   6.7987   6.8158   6.8225   6.8643   6.9116   6.9956   7.0758
  7.0851   7.1415   7.1865   7.1945   7.2207   7.2699   7.3191   7.3896
  7.4665   7.5897   7.6242   7.7263   7.8031   7.8568   7.9613   8.2870
 35.9327  36.1295  49.9885  50.1759  50.2419  50.2548
 --------------------------------------------------------------
 
 -----------------------------------------------------------------
                    Cartesian Multipole Moments
 -----------------------------------------------------------------
    Charge (ESU x 10^10)
                -0.0000
    Dipole Moment (Debye)
         X      -0.3531      Y      -0.7536      Z       0.2387
       Tot       0.8658
    Quadrupole Moments (Debye-Ang)
        XX     -30.4562     XY      -0.8122     YY     -34.5057
        XZ      -1.6846     YZ      -2.7751     ZZ     -32.5441
    Octopole Moments (Debye-Ang^2)
       XXX     -27.8761    XXY     -10.2287    XYY     -12.7692
       YYY     -40.8279    XXZ     -86.7854    XYZ      -2.1171
       YYZ     -98.9600    XZZ     -20.0185    YZZ     -24.1340
       ZZZ    -282.6002
    Hexadecapole Moments (Debye-Ang^3)
      XXXX    -175.1268   XXXY     -89.0621   XXYY     -83.9437
      XYYY    -101.7505   YYYY    -328.5908   XXXZ     -69.9398
      XXYZ     -25.2898   XYYZ     -33.7507   YYYZ    -102.9092
      XXZZ    -299.7248   XYZZ     -38.6898   YYZZ    -358.6132
      XZZZ    -125.3269   YZZZ    -138.0120   ZZZZ   -1736.6478
 -----------------------------------------------------------------
Archival summary:
1\1\centos77-c5\SP\ProcedureUnspecified\BasisUnspecified\42(3)\shihchen\MonJul1315:10:052020MonJul1315:10:052020\0\\#,ProcedureUnspecified,BasisUnspecified,\\0,3\N\O,1,1.18339\O,1,1.19032,2,132.087\O,1,1.42048,2,119.081,3,-179.712,0\N,4,1.64349,1,111.633,2,-87.4106,0\O,5,1.16839,4,120.904,1,95.6949,0\\\@

 Total job time:  19.42s(wall), 106.21s(cpu) 
 Mon Jul 13 15:10:05 2020

        *************************************************************
        *                                                           *
        *  Thank you very much for using Q-Chem.  Have a nice day.  *
        *                                                           *
        *************************************************************


