                  Welcome to Q-Chem
     A Quantum Leap Into The Future Of Chemistry


 Q-Chem 5.3 (devel), Q-Chem, Inc., Pleasanton, CA (2020)

 Yihan Shao,  Zhengting Gan,  E. Epifanovsky,  A. T. B. Gilbert,  M. Wormit,  
 J. Kussmann,  A. W. Lange,  A. Behn,  Jia Deng,  Xintian Feng,  D. Ghosh,  
 M. Goldey,  P. R. Horn,  L. D. Jacobson,  I. Kaliman,  T. Kus,  A. Landau,  
 Jie Liu,  E. I. Proynov,  R. M. Richard,  R. P. Steele,  E. J. Sundstrom,  
 H. L. Woodcock III,  P. M. Zimmerman,  D. Zuev,  B. Alam,  B. Albrecht,  
 E. Alguire,  S. A. Baeppler,  D. Barton,  Z. Benda,  Y. A. Bernard,  
 E. J. Berquist,  K. B. Bravaya,  H. Burton,  K. Carter-Fenk,  D. Casanova,  
 Chun-Min Chang,  Yunqing Chen,  A. Chien,  K. D. Closser,  M. P. Coons,  
 S. Coriani,  S. Dasgupta,  A. L. Dempwolff,  M. Diedenhofen,  Hainam Do,  
 R. G. Edgar,  Po-Tung Fang,  S. Faraji,  S. Fatehi,  Qingguo Feng,  
 J. Fosso-Tande,  J. Gayvert,  Qinghui Ge,  A. Ghysels,  G. Gidofalvi,  
 J. Gomes,  J. Gonthier,  A. Gunina,  D. Hait,  M. W. D. Hanson-Heine,  
 P. H. P. Harbach,  A. W. Hauser,  M. F. Herbst,  J. E. Herr,  
 E. G. Hohenstein,  Z. C. Holden,  Kerwin Hui,  B. C. Huynh,  T.-C. Jagau,  
 Hyunjun Ji,  B. Kaduk,  K. Khistyaev,  Jaehoon Kim,  P. Klunzinger,  K. Koh,  
 D. Kosenkov,  L. Koulias,  T. Kowalczyk,  C. M. Krauter,  A. Kunitsa,  
 Ka Un Lao,  A. Laurent,  K. V. Lawler,  Joonho Lee,  D. Lefrancois,  
 S. Lehtola,  D. S. Levine,  Yi-Pei Li,  You-Sheng Lin,  Fenglai Liu,  
 Kuan-Yu Liu,  E. Livshits,  M. Loipersberger,  A. Luenser,  P. Manohar,  
 E. Mansoor,  S. F. Manzer,  Shan-Ping Mao,  Yuezhi Mao,  N. Mardirossian,  
 A. V. Marenich,  T. Markovich,  L. A. Martinez-Martinez,  S. A. Maurer,  
 N. J. Mayhall,  S. C. McKenzie,  J.-M. Mewes,  P. Morgante,  A. F. Morrison,  
 J. W. Mullinax,  K. Nanda,  T. S. Nguyen-Beck,  R. Olivares-Amaya,  
 K. J. Oosterbaan,  J. A. Parkhill,  S. K. Paul,  F. Pavosevic,  Zheng Pei,  
 T. M. Perrine,  F. Plasser,  P. Pokhilko,  S. Prager,  A. Prociuk,  
 E. Ramos,  B. Rana,  D. R. Rehn,  F. Rob,  M. Scheurer,  M. Schneider,  
 N. Sergueev,  S. M. Sharada,  S. Sharma,  D. W. Small,  T. Stauch,  
 C. J. Stein,  T. Stein,  Yu-Chuan Su,  S. P. Veccham,  Zhen Tao,  
 A. J. W. Thom,  A. Tkatchenko,  T. Tsuchimochi,  N. M. Tubman,  L. Vogt,  
 M. L. Vidal,  O. Vydrov,  M. A. Watson,  J. Wenzel,  M. de Wergifosse,  
 T. A. Wesolowski,  A. White,  J. Witte,  A. Yamada,  Jun Yang,  K. Yao,  
 S. Yeganeh,  S. R. Yost,  Zhi-Qiang You,  A. Zech,  Igor Ying Zhang,  
 Xing Zhang,  Yan Zhao,  Ying Zhu,  B. R. Brooks,  G. K. L. Chan,  
 C. J. Cramer,  M. S. Gordon,  W. J. Hehre,  A. Klamt,  M. W. Schmidt,  
 C. D. Sherrill,  D. G. Truhlar,  A. Aspuru-Guzik,  R. Baer,  A. T. Bell,  
 N. A. Besley,  Jeng-Da Chai,  A. E. DePrince, III,  R. A. DiStasio Jr.,  
 A. Dreuw,  B. D. Dunietz,  T. R. Furlani,  Chao-Ping Hsu,  Yousung Jung,  
 Jing Kong,  D. S. Lambrecht,  WanZhen Liang,  C. Ochsenfeld,  
 V. A. Rassolov,  L. V. Slipchenko,  J. E. Subotnik,  T. Van Voorhis,  
 J. M. Herbert,  A. I. Krylov,  P. M. W. Gill,  M. Head-Gordon

 Contributors to earlier versions of Q-Chem not listed above: 
 R. D. Adamson,  B. Austin,  J. Baker,  G. J. O. Beran,  K. Brandhorst,  
 S. T. Brown,  E. F. C. Byrd,  A. K. Chakraborty,  C.-L. Cheng,  
 Siu Hung Chien,  D. M. Chipman,  D. L. Crittenden,  H. Dachsel,  
 R. J. Doerksen,  A. D. Dutoi,  L. Fusti-Molnar,  W. A. Goddard III,  
 A. Golubeva-Zadorozhnaya,  S. R. Gwaltney,  G. Hawkins,  A. Heyden,  
 S. Hirata,  G. Kedziora,  F. J. Keil,  C. Kelley,  Jihan Kim,  R. A. King,  
 R. Z. Khaliullin,  P. P. Korambath,  W. Kurlancheek,  A. M. Lee,  M. S. Lee,  
 S. V. Levchenko,  Ching Yeh Lin,  D. Liotard,  R. C. Lochan,  I. Lotan,  
 P. E. Maslen,  N. Nair,  D. P. O'Neill,  D. Neuhauser,  E. Neuscamman,  
 C. M. Oana,  R. Olson,  B. Peters,  R. Peverati,  P. A. Pieniazek,  
 Y. M. Rhee,  J. Ritchie,  M. A. Rohrdanz,  E. Rosta,  N. J. Russ,  
 H. F. Schaefer III,  N. E. Schultz,  N. Shenvi,  A. C. Simmonett,  A. Sodt,  
 D. Stuck,  K. S. Thanthiriwatte,  V. Vanovschi,  Tao Wang,  A. Warshel,  
 C. F. Williams,  Q. Wu,  X. Xu,  W. Zhang

 Please cite Q-Chem as follows:
 Y. Shao et al., Mol. Phys. 113, 184-215 (2015)
 DOI: 10.1080/00268976.2014.952696

 Q-Chem 5.3.0 for Intel X86 EM64T Linux

 Parts of Q-Chem use Armadillo 9.800.1 (Horizon Scraper).
 http://arma.sourceforge.net/

 Q-Chem begins on Mon Jul 13 15:05:46 2020  

Host: centos77-c5
0

     Scratch files written to /tmp/29025.centos77-h1/qchem34609//
Processing $rem in /opt/qchem-5.3.0-intel2020u1//config/preferences:
Processing $rem in /home/shihchengli/.qchemrc:

Checking the input file for inconsistencies... 	...done.

--------------------------------------------------------------
User input:
--------------------------------------------------------------
$rem
   JOBTYPE  sp
   EXCHANGE   omegaB97X-D
   BASIS   6-311+G(2df,2pd)
   UNRESTRICTED   True
   max_scf_cycles   250
   geom_opt_max_cycles   1500
   basis2 6-31G*
   scf_algorithm rca_diis
   SYM_IGNORE  TRUE
   print_input   true
   geom_opt_dmax   80
   pop_mulliken false
   XC_GRID 000075000302
$end

$molecule
0 3
N       0.8812547654     1.1145907846     2.4614309153
O       -0.0658016786     1.6528661288     2.9412303894
O       1.9516142568     1.5162445676     2.1557772743
N       -0.1180212321     -0.9253446920     3.5928979422
O       -1.2797759605     -1.0053087135     3.6881721107
O       0.5757209790     -0.2580589656     2.2607912580
$end
--------------------------------------------------------------
 ----------------------------------------------------------------
             Standard Nuclear Orientation (Angstroms)
    I     Atom           X                Y                Z
 ----------------------------------------------------------------
    1      N       0.8812547654     1.1145907846     2.4614309153
    2      O      -0.0658016786     1.6528661288     2.9412303894
    3      O       1.9516142568     1.5162445676     2.1557772743
    4      N      -0.1180212321    -0.9253446920     3.5928979422
    5      O      -1.2797759605    -1.0053087135     3.6881721107
    6      O       0.5757209790    -0.2580589656     2.2607912580
 ----------------------------------------------------------------
 Nuclear Repulsion Energy =         232.41886277 hartrees
 There are       24 alpha and       22 beta electrons
 Requested basis set is 6-311+G(2df,2pd)
 There are 48 shells and 204 basis functions

 Total QAlloc Memory Limit   2000 MB
 Mega-Array Size       188 MB
 MEM_STATIC part       192 MB

                       Distance Matrix (Angstroms)
             N (  1)   O (  2)   O (  3)   N (  4)   O (  5)
   O (  2)  1.190321
   O (  3)  1.183393  2.169232
   N (  4)  2.537737  2.659806  3.508570
   O (  5)  3.266332  3.016214  4.375882  1.168394
   O (  6)  1.420484  2.127483  2.247724  1.643489  2.457370
 
 A cutoff of  1.0D-09 yielded   1033 shell pairs
 There are     19308 function pairs (     25373 Cartesian)
 Smallest overlap matrix eigenvalue = 4.99E-04

 Scale SEOQF with 1.000000e-01/1.000000e-01/1.000000e-01

 Standard Electronic Orientation quadrupole field applied
 Nucleus-field energy     =    -0.0000000353 hartrees
 Requested basis set is 6-31G(d)
 There are 24 shells and 84 basis functions
 A cutoff of  1.0D-09 yielded    268 shell pairs
 There are      3534 function pairs (      4062 Cartesian)
 Smallest overlap matrix eigenvalue = 4.93E-03
 Guess from superposition of atomic densities
 Warning:  Energy on first SCF cycle will be non-variational
 SAD guess density has 46.000000 electrons
 Long-range K will be added via erf
 Coulomb attenuation parameter = 0.2 bohr**(-1)
 An unrestricted hybrid HF-DFT SCF calculation will be
 performed using Relaxed Constraint Minimization + Pulay DIIS
 Exchange:     0.2220 Hartree-Fock + 1.0000 wB97X-D + LR-HF
 Correlation:  1.0000 wB97X-D
 Using Euler-Maclaurin-Lebedev (75,302) quadrature formula
 Dispersion:   Grimme D
 SCF converges when DIIS error is below 1.0E-04
 using 6 threads for integral computing
 -------------------------------------------------------
 OpenMP Integral computing Module                
 Release: version 1.0, May 2013, Q-Chem Inc. Pittsburgh 
 -------------------------------------------------------
 using 6 threads for integral computing
 -------------------------------------------------------
 OpenMP Integral computing Module                
 Release: version 1.0, May 2013, Q-Chem Inc. Pittsburgh 
 -------------------------------------------------------
 ---------------------------------------
  Cycle       Energy         DIIS Error
 ---------------------------------------
    1    -411.0332422232      8.84E-02
    2    -409.6397766686      1.97E-02
    3    -409.7475534643      4.28E-03
    4    -409.8995807104      4.47E-03
    5    -409.9052271388      6.10E-04 Done RCA. Switching to DIIS
    6    -409.9127934983      4.77E-04
    7    -409.9131376089      1.45E-04
    8    -409.9132087783      6.78E-05 Convergence criterion met
 ---------------------------------------
 <S^2> = 2.0158
 SCF time:  CPU 14.60 s  wall 2.45 s
 SCF   energy in the small basis set = -409.91320878
 Total energy in the small basis set = -409.91320878
 ----------------------------------------------------
  Cycle       Energy    
 ----------------------------------------------------
    1     -41.7631034154     -4.18E+01
 Long-range K will be added via erf
 Coulomb attenuation parameter = 0.2 bohr**(-1)
 An unrestricted hybrid HF-DFT SCF calculation will be
 performed using Relaxed Constraint Minimization + Pulay DIIS
 Exchange:     0.2220 Hartree-Fock + 1.0000 wB97X-D + LR-HF
 Correlation:  1.0000 wB97X-D
 Using Euler-Maclaurin-Lebedev (75,302) quadrature formula
 Dispersion:   Grimme D
 SCF converges when DIIS error is below 1.0E-05
 Basis2 calculation detected. Using small basis as guess for larger.
 SCFMinFind is unable to tell whether the solution found is close.
 Resetting ReadMinima to 0 and attempting to follow guess.
 SCFMinFind following SCF Guess.
 using 6 threads for integral computing
 -------------------------------------------------------
 OpenMP Integral computing Module                
 Release: version 1.0, May 2013, Q-Chem Inc. Pittsburgh 
 -------------------------------------------------------
 using 6 threads for integral computing
 -------------------------------------------------------
 OpenMP Integral computing Module                
 Release: version 1.0, May 2013, Q-Chem Inc. Pittsburgh 
 -------------------------------------------------------
 ---------------------------------------
  Cycle       Energy         DIIS Error
 ---------------------------------------
    1    -409.9902757214      8.10E-03
    2    -409.9980180447      4.52E-03
    3    -410.0238101213      1.18E-03
    4    -410.0612774678      1.22E-03
    5    -410.0636727893      1.77E-04 Done RCA. Switching to DIIS
    6    -410.0674436549      1.69E-04
    7    -410.0679154685      7.28E-05
    8    -410.0682822426      4.78E-05
    9    -410.0685165019      3.02E-05
   10    -410.0687108069      2.02E-05
   11    -410.0688212045      1.25E-05
   12    -410.0688584145      1.15E-05
   13    -410.0688676808      3.65E-06 Convergence criterion met
 ---------------------------------------
 <S^2> = 2.0185
 SCF time:  CPU 82.37 s  wall 13.76 s
 SCF   energy in the final basis set = -410.06886768
 Total energy in the final basis set = -410.06886768
 
 --------------------------------------------------------------
 
                    Orbital Energies (a.u.)
 --------------------------------------------------------------
 
 Alpha MOs
 -- Occupied --
-19.4056 -19.4032 -19.3543 -19.3357 -14.7684 -14.6251  -1.4414  -1.3731
 -1.2578  -1.2015  -0.8770  -0.7768  -0.7225  -0.7139  -0.6759  -0.6567
 -0.6387  -0.6312  -0.5112  -0.4846  -0.4629  -0.4590  -0.4323  -0.3439
 -- Virtual --
 -0.0337   0.0128   0.0822   0.1165   0.1259   0.1355   0.1407   0.1674
  0.1768   0.1861   0.2328   0.2366   0.2522   0.2712   0.2883   0.2928
  0.2970   0.3226   0.3428   0.3484   0.3585   0.3666   0.3678   0.3779
  0.4090   0.4269   0.4506   0.4653   0.5018   0.5274   0.7152   0.7765
  0.7862   0.8313   0.8428   0.8617   0.9275   0.9371   0.9851   0.9989
  1.0173   1.0432   1.0620   1.0693   1.0932   1.1039   1.1166   1.1341
  1.1391   1.1667   1.1783   1.2161   1.2287   1.2336   1.2979   1.3260
  1.4000   1.4398   1.5330   1.5521   1.5683   1.5859   1.5992   1.6216
  1.6462   1.6670   1.7178   1.7605   1.8063   1.9392   1.9447   1.9714
  2.0054   2.1197   2.1905   2.2557   2.3180   2.3737   2.4320   2.4980
  2.5296   2.5486   2.6762   2.7954   3.4625   3.5316   3.5367   3.6293
  3.6424   3.6691   3.7068   3.7358   3.7600   3.7778   3.7867   3.9196
  3.9614   4.0039   4.0143   4.0529   4.0761   4.4202   4.4468   4.4930
  4.5116   4.5855   4.6385   4.6704   4.6947   4.7151   4.7351   4.7650
  4.8311   4.8935   5.0013   5.0107   5.0252   5.0415   5.0439   5.0448
  5.0685   5.0855   5.0934   5.1029   5.1229   5.1365   5.1620   5.2040
  5.2172   5.2530   5.3038   5.3588   5.4127   5.4367   5.4697   5.5030
  5.5256   5.6004   5.6395   5.6631   5.8055   5.9139   6.0122   6.1182
  6.2963   6.5394   6.6514   6.6731   6.6765   6.7268   6.7334   6.7711
  6.8187   6.8237   6.8439   6.9063   6.9746   7.0466   7.0778   7.1410
  7.1634   7.1714   7.1992   7.2456   7.3053   7.3716   7.4682   7.5413
  7.6272   7.6887   7.7916   7.8693   7.9231   8.2906  35.9077  36.1280
 49.9864  50.1594  50.2443  50.2579
 
 Beta MOs
 -- Occupied --
-19.3901 -19.3873 -19.3532 -19.3355 -14.7685 -14.6071  -1.4372  -1.3345
 -1.2548  -1.1685  -0.8321  -0.7463  -0.7105  -0.7016  -0.6707  -0.6022
 -0.5839  -0.5626  -0.4918  -0.4667  -0.4573  -0.4275
 -- Virtual --
 -0.1620  -0.0233  -0.0101   0.0570   0.0930   0.1213   0.1363   0.1418
  0.1472   0.1714   0.1803   0.1905   0.2375   0.2394   0.2535   0.2755
  0.2909   0.2970   0.3001   0.3243   0.3444   0.3514   0.3608   0.3692
  0.3714   0.3852   0.4139   0.4340   0.4577   0.4694   0.5168   0.5296
  0.7291   0.7873   0.7980   0.8451   0.8503   0.8722   0.9370   0.9426
  0.9943   1.0086   1.0268   1.0611   1.0716   1.0886   1.0999   1.1201
  1.1224   1.1427   1.1568   1.1696   1.1871   1.2315   1.2384   1.2485
  1.3134   1.3392   1.4067   1.4529   1.5386   1.5657   1.5781   1.5935
  1.6152   1.6402   1.6590   1.6897   1.7319   1.7676   1.8108   1.9447
  1.9552   1.9845   2.0202   2.1363   2.2037   2.2693   2.3294   2.3829
  2.4511   2.5098   2.5347   2.5530   2.6814   2.7978   3.4773   3.5638
  3.5720   3.6457   3.6558   3.6796   3.7114   3.7467   3.7865   3.8000
  3.8471   3.9376   3.9904   4.0162   4.0201   4.0682   4.0875   4.4223
  4.4540   4.4952   4.5142   4.6071   4.6525   4.7021   4.7356   4.7398
  4.7512   4.8102   4.8618   4.9454   5.0259   5.0439   5.0490   5.0524
  5.0557   5.0608   5.0865   5.0952   5.1040   5.1218   5.1370   5.1636
  5.1920   5.2166   5.2392   5.2809   5.3229   5.3631   5.4289   5.4524
  5.4848   5.5205   5.5445   5.6226   5.6583   5.6794   5.8094   5.9288
  6.0251   6.1579   6.3006   6.5418   6.6825   6.6980   6.7125   6.7730
  6.7949   6.7990   6.8232   6.8274   6.8496   6.9089   7.0089   7.0591
  7.0873   7.1684   7.1790   7.2026   7.2290   7.2577   7.3160   7.3782
  7.4930   7.5446   7.6594   7.7181   7.7955   7.8765   7.9417   8.2914
 35.9294  36.1279  50.0005  50.1765  50.2452  50.2585
 --------------------------------------------------------------
 
 -----------------------------------------------------------------
                    Cartesian Multipole Moments
 -----------------------------------------------------------------
    Charge (ESU x 10^10)
                -0.0000
    Dipole Moment (Debye)
         X      -0.1636      Y      -0.8923      Z       0.1932
       Tot       0.9275
    Quadrupole Moments (Debye-Ang)
        XX     -34.1757     XY      -0.3595     YY     -33.8793
        XZ       0.8403     YZ      -3.4468     ZZ     -29.3326
    Octopole Moments (Debye-Ang^2)
       XXX     -36.5215    XXY     -13.3711    XYY     -12.2274
       YYY     -40.0739    XXZ     -95.0579    XYZ      -0.0653
       YYZ     -96.4544    XZZ      -4.4184    YZZ     -23.0905
       ZZZ    -255.4634
    Hexadecapole Moments (Debye-Ang^3)
      XXXX    -242.3664   XXXY     -87.2234   XXYY     -91.9429
      XYYY     -83.2902   YYYY    -296.9573   XXXZ     -47.5778
      XXYZ     -20.3324   XYYZ     -16.1333   YYYZ     -73.3302
      XXZZ    -319.8317   XYZZ     -23.6972   YYZZ    -335.3050
      XZZZ     -12.8255   YZZZ     -94.6201   ZZZZ   -1556.0227
 -----------------------------------------------------------------
Archival summary:
1\1\centos77-c5\SP\ProcedureUnspecified\BasisUnspecified\42(3)\shihchen\MonJul1315:06:052020MonJul1315:06:052020\0\\#,ProcedureUnspecified,BasisUnspecified,\\0,3\N\O,1,1.18339\O,1,1.19032,2,132.087\O,1,1.42048,2,119.081,3,-179.712,0\N,4,1.64349,1,111.633,2,132.589,0\O,5,1.16839,4,120.904,1,95.6949,0\\\@

 Total job time:  18.64s(wall), 101.34s(cpu) 
 Mon Jul 13 15:06:05 2020

        *************************************************************
        *                                                           *
        *  Thank you very much for using Q-Chem.  Have a nice day.  *
        *                                                           *
        *************************************************************


