                  Welcome to Q-Chem
     A Quantum Leap Into The Future Of Chemistry


 Q-Chem 5.3 (devel), Q-Chem, Inc., Pleasanton, CA (2020)

 Yihan Shao,  Zhengting Gan,  E. Epifanovsky,  A. T. B. Gilbert,  M. Wormit,  
 J. Kussmann,  A. W. Lange,  A. Behn,  Jia Deng,  Xintian Feng,  D. Ghosh,  
 M. Goldey,  P. R. Horn,  L. D. Jacobson,  I. Kaliman,  T. Kus,  A. Landau,  
 Jie Liu,  E. I. Proynov,  R. M. Richard,  R. P. Steele,  E. J. Sundstrom,  
 H. L. Woodcock III,  P. M. Zimmerman,  D. Zuev,  B. Alam,  B. Albrecht,  
 E. Alguire,  S. A. Baeppler,  D. Barton,  Z. Benda,  Y. A. Bernard,  
 E. J. Berquist,  K. B. Bravaya,  H. Burton,  K. Carter-Fenk,  D. Casanova,  
 Chun-Min Chang,  Yunqing Chen,  A. Chien,  K. D. Closser,  M. P. Coons,  
 S. Coriani,  S. Dasgupta,  A. L. Dempwolff,  M. Diedenhofen,  Hainam Do,  
 R. G. Edgar,  Po-Tung Fang,  S. Faraji,  S. Fatehi,  Qingguo Feng,  
 J. Fosso-Tande,  J. Gayvert,  Qinghui Ge,  A. Ghysels,  G. Gidofalvi,  
 J. Gomes,  J. Gonthier,  A. Gunina,  D. Hait,  M. W. D. Hanson-Heine,  
 P. H. P. Harbach,  A. W. Hauser,  M. F. Herbst,  J. E. Herr,  
 E. G. Hohenstein,  Z. C. Holden,  Kerwin Hui,  B. C. Huynh,  T.-C. Jagau,  
 Hyunjun Ji,  B. Kaduk,  K. Khistyaev,  Jaehoon Kim,  P. Klunzinger,  K. Koh,  
 D. Kosenkov,  L. Koulias,  T. Kowalczyk,  C. M. Krauter,  A. Kunitsa,  
 Ka Un Lao,  A. Laurent,  K. V. Lawler,  Joonho Lee,  D. Lefrancois,  
 S. Lehtola,  D. S. Levine,  Yi-Pei Li,  You-Sheng Lin,  Fenglai Liu,  
 Kuan-Yu Liu,  E. Livshits,  M. Loipersberger,  A. Luenser,  P. Manohar,  
 E. Mansoor,  S. F. Manzer,  Shan-Ping Mao,  Yuezhi Mao,  N. Mardirossian,  
 A. V. Marenich,  T. Markovich,  L. A. Martinez-Martinez,  S. A. Maurer,  
 N. J. Mayhall,  S. C. McKenzie,  J.-M. Mewes,  P. Morgante,  A. F. Morrison,  
 J. W. Mullinax,  K. Nanda,  T. S. Nguyen-Beck,  R. Olivares-Amaya,  
 K. J. Oosterbaan,  J. A. Parkhill,  S. K. Paul,  F. Pavosevic,  Zheng Pei,  
 T. M. Perrine,  F. Plasser,  P. Pokhilko,  S. Prager,  A. Prociuk,  
 E. Ramos,  B. Rana,  D. R. Rehn,  F. Rob,  M. Scheurer,  M. Schneider,  
 N. Sergueev,  S. M. Sharada,  S. Sharma,  D. W. Small,  T. Stauch,  
 C. J. Stein,  T. Stein,  Yu-Chuan Su,  S. P. Veccham,  Zhen Tao,  
 A. J. W. Thom,  A. Tkatchenko,  T. Tsuchimochi,  N. M. Tubman,  L. Vogt,  
 M. L. Vidal,  O. Vydrov,  M. A. Watson,  J. Wenzel,  M. de Wergifosse,  
 T. A. Wesolowski,  A. White,  J. Witte,  A. Yamada,  Jun Yang,  K. Yao,  
 S. Yeganeh,  S. R. Yost,  Zhi-Qiang You,  A. Zech,  Igor Ying Zhang,  
 Xing Zhang,  Yan Zhao,  Ying Zhu,  B. R. Brooks,  G. K. L. Chan,  
 C. J. Cramer,  M. S. Gordon,  W. J. Hehre,  A. Klamt,  M. W. Schmidt,  
 C. D. Sherrill,  D. G. Truhlar,  A. Aspuru-Guzik,  R. Baer,  A. T. Bell,  
 N. A. Besley,  Jeng-Da Chai,  A. E. DePrince, III,  R. A. DiStasio Jr.,  
 A. Dreuw,  B. D. Dunietz,  T. R. Furlani,  Chao-Ping Hsu,  Yousung Jung,  
 Jing Kong,  D. S. Lambrecht,  WanZhen Liang,  C. Ochsenfeld,  
 V. A. Rassolov,  L. V. Slipchenko,  J. E. Subotnik,  T. Van Voorhis,  
 J. M. Herbert,  A. I. Krylov,  P. M. W. Gill,  M. Head-Gordon

 Contributors to earlier versions of Q-Chem not listed above: 
 R. D. Adamson,  B. Austin,  J. Baker,  G. J. O. Beran,  K. Brandhorst,  
 S. T. Brown,  E. F. C. Byrd,  A. K. Chakraborty,  C.-L. Cheng,  
 Siu Hung Chien,  D. M. Chipman,  D. L. Crittenden,  H. Dachsel,  
 R. J. Doerksen,  A. D. Dutoi,  L. Fusti-Molnar,  W. A. Goddard III,  
 A. Golubeva-Zadorozhnaya,  S. R. Gwaltney,  G. Hawkins,  A. Heyden,  
 S. Hirata,  G. Kedziora,  F. J. Keil,  C. Kelley,  Jihan Kim,  R. A. King,  
 R. Z. Khaliullin,  P. P. Korambath,  W. Kurlancheek,  A. M. Lee,  M. S. Lee,  
 S. V. Levchenko,  Ching Yeh Lin,  D. Liotard,  R. C. Lochan,  I. Lotan,  
 P. E. Maslen,  N. Nair,  D. P. O'Neill,  D. Neuhauser,  E. Neuscamman,  
 C. M. Oana,  R. Olson,  B. Peters,  R. Peverati,  P. A. Pieniazek,  
 Y. M. Rhee,  J. Ritchie,  M. A. Rohrdanz,  E. Rosta,  N. J. Russ,  
 H. F. Schaefer III,  N. E. Schultz,  N. Shenvi,  A. C. Simmonett,  A. Sodt,  
 D. Stuck,  K. S. Thanthiriwatte,  V. Vanovschi,  Tao Wang,  A. Warshel,  
 C. F. Williams,  Q. Wu,  X. Xu,  W. Zhang

 Please cite Q-Chem as follows:
 Y. Shao et al., Mol. Phys. 113, 184-215 (2015)
 DOI: 10.1080/00268976.2014.952696

 Q-Chem 5.3.0 for Intel X86 EM64T Linux

 Parts of Q-Chem use Armadillo 9.800.1 (Horizon Scraper).
 http://arma.sourceforge.net/

 Q-Chem begins on Mon Jul 13 15:14:59 2020  

Host: centos77-c5
0

     Scratch files written to /tmp/29025.centos77-h1/qchem73063//
Processing $rem in /opt/qchem-5.3.0-intel2020u1//config/preferences:
Processing $rem in /home/shihchengli/.qchemrc:

Checking the input file for inconsistencies... 	...done.

--------------------------------------------------------------
User input:
--------------------------------------------------------------
$rem
   JOBTYPE  sp
   EXCHANGE   omegaB97X-D
   BASIS   6-311+G(2df,2pd)
   UNRESTRICTED   True
   max_scf_cycles   250
   geom_opt_max_cycles   1500
   basis2 6-31G*
   scf_algorithm rca_diis
   SYM_IGNORE  TRUE
   print_input   true
   geom_opt_dmax   80
   pop_mulliken false
   XC_GRID 000075000302
$end

$molecule
0 3
N       0.7355282936     1.2535793306     2.4259221408
O       0.3811366691     2.1330814708     1.7063762066
O       1.7551556118     1.0545965490     2.9926542955
N       0.0612395053     -0.8832593645     3.6172919078
O       -0.6586012366     -1.7884190706     3.7836068907
O       -0.3294677131     0.3254101947     2.5744484486
$end
--------------------------------------------------------------
 ----------------------------------------------------------------
             Standard Nuclear Orientation (Angstroms)
    I     Atom           X                Y                Z
 ----------------------------------------------------------------
    1      N       0.7355282936     1.2535793306     2.4259221408
    2      O       0.3811366691     2.1330814708     1.7063762066
    3      O       1.7551556118     1.0545965490     2.9926542955
    4      N       0.0612395053    -0.8832593645     3.6172919078
    5      O      -0.6586012366    -1.7884190706     3.7836068907
    6      O      -0.3294677131     0.3254101947     2.5744484486
 ----------------------------------------------------------------
 Nuclear Repulsion Energy =         228.76585329 hartrees
 There are       24 alpha and       22 beta electrons
 Requested basis set is 6-311+G(2df,2pd)
 There are 48 shells and 204 basis functions

 Total QAlloc Memory Limit   2000 MB
 Mega-Array Size       188 MB
 MEM_STATIC part       192 MB

                       Distance Matrix (Angstroms)
             N (  1)   O (  2)   O (  3)   N (  4)   O (  5)
   O (  2)  1.190321
   O (  3)  1.183393  2.169232
   N (  4)  2.537737  3.585003  2.648549
   O (  5)  3.611185  4.557862  3.812423  1.168394
   O (  6)  1.420484  2.127483  2.247724  1.643489  2.457370
 
 A cutoff of  1.0D-09 yielded   1010 shell pairs
 There are     18759 function pairs (     24565 Cartesian)
 Smallest overlap matrix eigenvalue = 6.87E-04

 Scale SEOQF with 1.000000e-01/1.000000e-01/1.000000e-01

 Standard Electronic Orientation quadrupole field applied
 Nucleus-field energy     =    -0.0000000348 hartrees
 Requested basis set is 6-31G(d)
 There are 24 shells and 84 basis functions
 A cutoff of  1.0D-09 yielded    265 shell pairs
 There are      3478 function pairs (      3998 Cartesian)
 Smallest overlap matrix eigenvalue = 4.45E-03
 Guess from superposition of atomic densities
 Warning:  Energy on first SCF cycle will be non-variational
 SAD guess density has 46.000000 electrons
 Long-range K will be added via erf
 Coulomb attenuation parameter = 0.2 bohr**(-1)
 An unrestricted hybrid HF-DFT SCF calculation will be
 performed using Relaxed Constraint Minimization + Pulay DIIS
 Exchange:     0.2220 Hartree-Fock + 1.0000 wB97X-D + LR-HF
 Correlation:  1.0000 wB97X-D
 Using Euler-Maclaurin-Lebedev (75,302) quadrature formula
 Dispersion:   Grimme D
 SCF converges when DIIS error is below 1.0E-04
 using 6 threads for integral computing
 -------------------------------------------------------
 OpenMP Integral computing Module                
 Release: version 1.0, May 2013, Q-Chem Inc. Pittsburgh 
 -------------------------------------------------------
 using 6 threads for integral computing
 -------------------------------------------------------
 OpenMP Integral computing Module                
 Release: version 1.0, May 2013, Q-Chem Inc. Pittsburgh 
 -------------------------------------------------------
 ---------------------------------------
  Cycle       Energy         DIIS Error
 ---------------------------------------
    1    -411.0327686465      8.84E-02
    2    -409.6553673766      1.95E-02
    3    -409.7581668953      4.60E-03
    4    -409.9078135643      4.86E-03
    5    -409.9145482447      6.32E-04 Done RCA. Switching to DIIS
    6    -409.9236791584      5.48E-04
    7    -409.9241461352      1.32E-04
    8    -409.9242383048      9.93E-05 Convergence criterion met
 ---------------------------------------
 <S^2> = 2.0158
 SCF time:  CPU 14.26 s  wall 2.39 s
 SCF   energy in the small basis set = -409.92423830
 Total energy in the small basis set = -409.92423830
 ----------------------------------------------------
  Cycle       Energy    
 ----------------------------------------------------
    1     -41.7576085669     -4.18E+01
 Long-range K will be added via erf
 Coulomb attenuation parameter = 0.2 bohr**(-1)
 An unrestricted hybrid HF-DFT SCF calculation will be
 performed using Relaxed Constraint Minimization + Pulay DIIS
 Exchange:     0.2220 Hartree-Fock + 1.0000 wB97X-D + LR-HF
 Correlation:  1.0000 wB97X-D
 Using Euler-Maclaurin-Lebedev (75,302) quadrature formula
 Dispersion:   Grimme D
 SCF converges when DIIS error is below 1.0E-05
 Basis2 calculation detected. Using small basis as guess for larger.
 SCFMinFind is unable to tell whether the solution found is close.
 Resetting ReadMinima to 0 and attempting to follow guess.
 SCFMinFind following SCF Guess.
 using 6 threads for integral computing
 -------------------------------------------------------
 OpenMP Integral computing Module                
 Release: version 1.0, May 2013, Q-Chem Inc. Pittsburgh 
 -------------------------------------------------------
 using 6 threads for integral computing
 -------------------------------------------------------
 OpenMP Integral computing Module                
 Release: version 1.0, May 2013, Q-Chem Inc. Pittsburgh 
 -------------------------------------------------------
 ---------------------------------------
  Cycle       Energy         DIIS Error
 ---------------------------------------
    1    -410.0135749335      8.02E-03
    2    -410.0247424317      4.07E-03
    3    -410.0452094504      1.10E-03
    4    -410.0743507973      1.19E-03
    5    -410.0763923217      1.90E-04 Done RCA. Switching to DIIS
    6    -410.0793128076      2.02E-04
    7    -410.0795289413      5.36E-05
    8    -410.0795992250      1.89E-05
    9    -410.0796206305      9.23E-06 Convergence criterion met
 ---------------------------------------
 <S^2> = 2.0182
 SCF time:  CPU 58.69 s  wall 9.81 s
 SCF   energy in the final basis set = -410.07962063
 Total energy in the final basis set = -410.07962063
 
 --------------------------------------------------------------
 
                    Orbital Energies (a.u.)
 --------------------------------------------------------------
 
 Alpha MOs
 -- Occupied --
-19.4135 -19.4007 -19.3478 -19.3470 -14.7756 -14.6200  -1.4440  -1.3696
 -1.2589  -1.2096  -0.8731  -0.7794  -0.7196  -0.7185  -0.6841  -0.6534
 -0.6480  -0.6228  -0.5070  -0.4956  -0.4641  -0.4602  -0.4392  -0.3334
 -- Virtual --
 -0.0218   0.0051   0.0705   0.1136   0.1202   0.1339   0.1428   0.1669
  0.1787   0.1985   0.2320   0.2426   0.2479   0.2654   0.2893   0.2913
  0.3131   0.3240   0.3311   0.3402   0.3510   0.3521   0.3753   0.3842
  0.4039   0.4313   0.4457   0.4913   0.5033   0.5246   0.7451   0.7674
  0.7935   0.8043   0.9008   0.9135   0.9222   0.9570   0.9865   0.9933
  1.0364   1.0482   1.0581   1.0791   1.0866   1.0877   1.1097   1.1228
  1.1353   1.1517   1.1620   1.1799   1.2120   1.2251   1.2655   1.3494
  1.4582   1.4700   1.5153   1.5399   1.5496   1.5696   1.5935   1.6133
  1.6254   1.6839   1.7682   1.8073   1.8273   1.8672   1.9240   1.9538
  1.9752   2.1227   2.1444   2.1879   2.3583   2.3797   2.4416   2.5309
  2.5499   2.5596   2.7181   2.8114   3.4958   3.5537   3.5667   3.5998
  3.6204   3.6547   3.6642   3.7335   3.7488   3.7700   3.7816   3.8798
  3.9613   3.9709   4.0173   4.0804   4.1410   4.4253   4.4575   4.4886
  4.4974   4.5678   4.6439   4.6516   4.6967   4.7277   4.7418   4.7497
  4.7851   4.9177   4.9903   5.0014   5.0209   5.0242   5.0419   5.0490
  5.0599   5.0717   5.1003   5.1093   5.1190   5.1271   5.1535   5.1796
  5.2010   5.3148   5.3249   5.3621   5.4019   5.4100   5.4755   5.4851
  5.5531   5.5590   5.6427   5.6684   5.8250   5.8645   5.9911   6.1374
  6.3261   6.5352   6.6511   6.6666   6.7096   6.7169   6.7561   6.7642
  6.7870   6.8334   6.8926   6.9068   6.9195   6.9969   7.0944   7.1065
  7.1592   7.1692   7.1845   7.2703   7.2802   7.3465   7.4608   7.5696
  7.6699   7.7062   7.8215   7.8406   7.9239   8.2779  35.9161  36.1208
 49.9869  50.1658  50.2386  50.2635
 
 Beta MOs
 -- Occupied --
-19.3993 -19.3832 -19.3475 -19.3459 -14.7761 -14.6013  -1.4401  -1.3316
 -1.2570  -1.1751  -0.8314  -0.7444  -0.7158  -0.7057  -0.6730  -0.6037
 -0.5739  -0.5712  -0.4797  -0.4711  -0.4615  -0.4463
 -- Virtual --
 -0.1477  -0.0281   0.0110   0.0537   0.0818   0.1172   0.1294   0.1381
  0.1477   0.1688   0.1810   0.2020   0.2340   0.2449   0.2512   0.2665
  0.2931   0.2970   0.3182   0.3247   0.3331   0.3418   0.3525   0.3546
  0.3808   0.3879   0.4138   0.4368   0.4476   0.4937   0.5212   0.5294
  0.7545   0.7810   0.8131   0.8215   0.9070   0.9188   0.9310   0.9692
  0.9912   1.0024   1.0428   1.0593   1.0650   1.0906   1.1041   1.1068
  1.1226   1.1301   1.1482   1.1591   1.1757   1.1900   1.2198   1.2384
  1.2780   1.3618   1.4709   1.4822   1.5360   1.5473   1.5555   1.5736
  1.6031   1.6286   1.6542   1.6893   1.7794   1.8099   1.8537   1.8745
  1.9283   1.9621   1.9960   2.1429   2.1578   2.1953   2.3620   2.3911
  2.4620   2.5377   2.5582   2.5660   2.7285   2.8153   3.5229   3.5866
  3.5899   3.6142   3.6341   3.6580   3.6778   3.7509   3.7743   3.8049
  3.8256   3.8992   3.9880   3.9986   4.0184   4.0894   4.1527   4.4270
  4.4599   4.4947   4.4992   4.5998   4.6492   4.6980   4.7197   4.7541
  4.7749   4.7995   4.8059   4.9693   5.0092   5.0179   5.0433   5.0505
  5.0553   5.0632   5.0753   5.0890   5.1217   5.1230   5.1304   5.1489
  5.1743   5.1982   5.2185   5.3411   5.3486   5.3888   5.4044   5.4207
  5.4937   5.5005   5.5605   5.5918   5.6576   5.6862   5.8325   5.8719
  6.0066   6.1737   6.3395   6.5370   6.6805   6.6954   6.7487   6.7663
  6.7821   6.7937   6.8078   6.8400   6.8948   6.9075   6.9621   7.0096
  7.1171   7.1238   7.1688   7.1971   7.2146   7.2746   7.3051   7.3532
  7.4834   7.5794   7.7002   7.7332   7.8330   7.8574   7.9331   8.2794
 35.9386  36.1205  50.0017  50.1817  50.2409  50.2635
 --------------------------------------------------------------
 
 -----------------------------------------------------------------
                    Cartesian Multipole Moments
 -----------------------------------------------------------------
    Charge (ESU x 10^10)
                -0.0000
    Dipole Moment (Debye)
         X      -0.2644      Y      -0.6948      Z       0.3613
       Tot       0.8266
    Quadrupole Moments (Debye-Ang)
        XX     -33.6495     XY      -1.1142     YY     -33.9984
        XZ      -1.3105     YZ      -0.3948     ZZ     -29.7135
    Octopole Moments (Debye-Ang^2)
       XXX     -35.6984    XXY     -13.8892    XYY     -10.9875
       YYY     -37.9197    XXZ     -97.0765    XYZ      -4.0139
       YYZ     -92.5140    XZZ     -14.5245    YZZ      -9.8635
       ZZZ    -261.7299
    Hexadecapole Moments (Debye-Ang^3)
      XXXX    -168.4480   XXXY     -77.2132   XXYY     -94.0288
      XYYY     -78.0157   YYYY    -396.1056   XXXZ     -87.8710
      XXYZ     -12.3180   XYYZ     -23.4470   YYYZ     -14.3879
      XXZZ    -326.1490   XYZZ     -38.9835   YYZZ    -338.6920
      XZZZ     -83.3077   YZZZ      -7.0385   ZZZZ   -1622.1700
 -----------------------------------------------------------------
Archival summary:
1\1\centos77-c5\SP\ProcedureUnspecified\BasisUnspecified\42(3)\shihchen\MonJul1315:15:142020MonJul1315:15:142020\0\\#,ProcedureUnspecified,BasisUnspecified,\\0,3\N\O,1,1.18339\O,1,1.19032,2,132.087\O,1,1.42048,2,119.081,3,-179.712,0\N,4,1.64349,1,111.633,2,2.58945,0\O,5,1.16839,4,120.904,1,-174.305,0\\\@

 Total job time:  14.49s(wall), 77.00s(cpu) 
 Mon Jul 13 15:15:14 2020

        *************************************************************
        *                                                           *
        *  Thank you very much for using Q-Chem.  Have a nice day.  *
        *                                                           *
        *************************************************************


