                  Welcome to Q-Chem
     A Quantum Leap Into The Future Of Chemistry


 Q-Chem 5.3 (devel), Q-Chem, Inc., Pleasanton, CA (2020)

 Yihan Shao,  Zhengting Gan,  E. Epifanovsky,  A. T. B. Gilbert,  M. Wormit,  
 J. Kussmann,  A. W. Lange,  A. Behn,  Jia Deng,  Xintian Feng,  D. Ghosh,  
 M. Goldey,  P. R. Horn,  L. D. Jacobson,  I. Kaliman,  T. Kus,  A. Landau,  
 Jie Liu,  E. I. Proynov,  R. M. Richard,  R. P. Steele,  E. J. Sundstrom,  
 H. L. Woodcock III,  P. M. Zimmerman,  D. Zuev,  B. Alam,  B. Albrecht,  
 E. Alguire,  S. A. Baeppler,  D. Barton,  Z. Benda,  Y. A. Bernard,  
 E. J. Berquist,  K. B. Bravaya,  H. Burton,  K. Carter-Fenk,  D. Casanova,  
 Chun-Min Chang,  Yunqing Chen,  A. Chien,  K. D. Closser,  M. P. Coons,  
 S. Coriani,  S. Dasgupta,  A. L. Dempwolff,  M. Diedenhofen,  Hainam Do,  
 R. G. Edgar,  Po-Tung Fang,  S. Faraji,  S. Fatehi,  Qingguo Feng,  
 J. Fosso-Tande,  J. Gayvert,  Qinghui Ge,  A. Ghysels,  G. Gidofalvi,  
 J. Gomes,  J. Gonthier,  A. Gunina,  D. Hait,  M. W. D. Hanson-Heine,  
 P. H. P. Harbach,  A. W. Hauser,  M. F. Herbst,  J. E. Herr,  
 E. G. Hohenstein,  Z. C. Holden,  Kerwin Hui,  B. C. Huynh,  T.-C. Jagau,  
 Hyunjun Ji,  B. Kaduk,  K. Khistyaev,  Jaehoon Kim,  P. Klunzinger,  K. Koh,  
 D. Kosenkov,  L. Koulias,  T. Kowalczyk,  C. M. Krauter,  A. Kunitsa,  
 Ka Un Lao,  A. Laurent,  K. V. Lawler,  Joonho Lee,  D. Lefrancois,  
 S. Lehtola,  D. S. Levine,  Yi-Pei Li,  You-Sheng Lin,  Fenglai Liu,  
 Kuan-Yu Liu,  E. Livshits,  M. Loipersberger,  A. Luenser,  P. Manohar,  
 E. Mansoor,  S. F. Manzer,  Shan-Ping Mao,  Yuezhi Mao,  N. Mardirossian,  
 A. V. Marenich,  T. Markovich,  L. A. Martinez-Martinez,  S. A. Maurer,  
 N. J. Mayhall,  S. C. McKenzie,  J.-M. Mewes,  P. Morgante,  A. F. Morrison,  
 J. W. Mullinax,  K. Nanda,  T. S. Nguyen-Beck,  R. Olivares-Amaya,  
 K. J. Oosterbaan,  J. A. Parkhill,  S. K. Paul,  F. Pavosevic,  Zheng Pei,  
 T. M. Perrine,  F. Plasser,  P. Pokhilko,  S. Prager,  A. Prociuk,  
 E. Ramos,  B. Rana,  D. R. Rehn,  F. Rob,  M. Scheurer,  M. Schneider,  
 N. Sergueev,  S. M. Sharada,  S. Sharma,  D. W. Small,  T. Stauch,  
 C. J. Stein,  T. Stein,  Yu-Chuan Su,  S. P. Veccham,  Zhen Tao,  
 A. J. W. Thom,  A. Tkatchenko,  T. Tsuchimochi,  N. M. Tubman,  L. Vogt,  
 M. L. Vidal,  O. Vydrov,  M. A. Watson,  J. Wenzel,  M. de Wergifosse,  
 T. A. Wesolowski,  A. White,  J. Witte,  A. Yamada,  Jun Yang,  K. Yao,  
 S. Yeganeh,  S. R. Yost,  Zhi-Qiang You,  A. Zech,  Igor Ying Zhang,  
 Xing Zhang,  Yan Zhao,  Ying Zhu,  B. R. Brooks,  G. K. L. Chan,  
 C. J. Cramer,  M. S. Gordon,  W. J. Hehre,  A. Klamt,  M. W. Schmidt,  
 C. D. Sherrill,  D. G. Truhlar,  A. Aspuru-Guzik,  R. Baer,  A. T. Bell,  
 N. A. Besley,  Jeng-Da Chai,  A. E. DePrince, III,  R. A. DiStasio Jr.,  
 A. Dreuw,  B. D. Dunietz,  T. R. Furlani,  Chao-Ping Hsu,  Yousung Jung,  
 Jing Kong,  D. S. Lambrecht,  WanZhen Liang,  C. Ochsenfeld,  
 V. A. Rassolov,  L. V. Slipchenko,  J. E. Subotnik,  T. Van Voorhis,  
 J. M. Herbert,  A. I. Krylov,  P. M. W. Gill,  M. Head-Gordon

 Contributors to earlier versions of Q-Chem not listed above: 
 R. D. Adamson,  B. Austin,  J. Baker,  G. J. O. Beran,  K. Brandhorst,  
 S. T. Brown,  E. F. C. Byrd,  A. K. Chakraborty,  C.-L. Cheng,  
 Siu Hung Chien,  D. M. Chipman,  D. L. Crittenden,  H. Dachsel,  
 R. J. Doerksen,  A. D. Dutoi,  L. Fusti-Molnar,  W. A. Goddard III,  
 A. Golubeva-Zadorozhnaya,  S. R. Gwaltney,  G. Hawkins,  A. Heyden,  
 S. Hirata,  G. Kedziora,  F. J. Keil,  C. Kelley,  Jihan Kim,  R. A. King,  
 R. Z. Khaliullin,  P. P. Korambath,  W. Kurlancheek,  A. M. Lee,  M. S. Lee,  
 S. V. Levchenko,  Ching Yeh Lin,  D. Liotard,  R. C. Lochan,  I. Lotan,  
 P. E. Maslen,  N. Nair,  D. P. O'Neill,  D. Neuhauser,  E. Neuscamman,  
 C. M. Oana,  R. Olson,  B. Peters,  R. Peverati,  P. A. Pieniazek,  
 Y. M. Rhee,  J. Ritchie,  M. A. Rohrdanz,  E. Rosta,  N. J. Russ,  
 H. F. Schaefer III,  N. E. Schultz,  N. Shenvi,  A. C. Simmonett,  A. Sodt,  
 D. Stuck,  K. S. Thanthiriwatte,  V. Vanovschi,  Tao Wang,  A. Warshel,  
 C. F. Williams,  Q. Wu,  X. Xu,  W. Zhang

 Please cite Q-Chem as follows:
 Y. Shao et al., Mol. Phys. 113, 184-215 (2015)
 DOI: 10.1080/00268976.2014.952696

 Q-Chem 5.3.0 for Intel X86 EM64T Linux

 Parts of Q-Chem use Armadillo 9.800.1 (Horizon Scraper).
 http://arma.sourceforge.net/

 Q-Chem begins on Mon Jul 13 15:17:16 2020  

Host: centos77-c5
0

     Scratch files written to /tmp/29025.centos77-h1/qchem114359//
Processing $rem in /opt/qchem-5.3.0-intel2020u1//config/preferences:
Processing $rem in /home/shihchengli/.qchemrc:

Checking the input file for inconsistencies... 	...done.

--------------------------------------------------------------
User input:
--------------------------------------------------------------
$rem
   JOBTYPE  sp
   EXCHANGE   omegaB97X-D
   BASIS   6-311+G(2df,2pd)
   UNRESTRICTED   True
   max_scf_cycles   250
   geom_opt_max_cycles   1500
   basis2 6-31G*
   scf_algorithm rca_diis
   SYM_IGNORE  TRUE
   print_input   true
   geom_opt_dmax   80
   pop_mulliken false
   XC_GRID 000075000302
$end

$molecule
0 3
N       0.7009494960     1.1607042209     2.4294178683
O       0.5078008216     2.0562319575     1.6694261236
O       1.6883484901     0.7481477817     2.9346502519
N       -0.3627252631     -0.6657954272     3.8339113511
O       -0.0493698751     -1.7419805014     3.5040939050
O       -0.5400125393     0.5376810785     2.7288003901
$end
--------------------------------------------------------------
 ----------------------------------------------------------------
             Standard Nuclear Orientation (Angstroms)
    I     Atom           X                Y                Z
 ----------------------------------------------------------------
    1      N       0.7009494960     1.1607042209     2.4294178683
    2      O       0.5078008216     2.0562319575     1.6694261236
    3      O       1.6883484901     0.7481477817     2.9346502519
    4      N      -0.3627252631    -0.6657954272     3.8339113511
    5      O      -0.0493698751    -1.7419805014     3.5040939050
    6      O      -0.5400125393     0.5376810785     2.7288003901
 ----------------------------------------------------------------
 Nuclear Repulsion Energy =         232.47235981 hartrees
 There are       24 alpha and       22 beta electrons
 Requested basis set is 6-311+G(2df,2pd)
 There are 48 shells and 204 basis functions

 Total QAlloc Memory Limit   2000 MB
 Mega-Array Size       188 MB
 MEM_STATIC part       192 MB

                       Distance Matrix (Angstroms)
             N (  1)   O (  2)   O (  3)   N (  4)   O (  5)
   O (  2)  1.190321
   O (  3)  1.183393  2.169232
   N (  4)  2.537737  3.585003  2.648549
   O (  5)  3.184884  4.254746  3.089445  1.168394
   O (  6)  1.420484  2.127483  2.247724  1.643489  2.457370
 
 A cutoff of  1.0D-09 yielded   1031 shell pairs
 There are     19224 function pairs (     25231 Cartesian)
 Smallest overlap matrix eigenvalue = 6.97E-04

 Scale SEOQF with 1.000000e-01/1.000000e-01/1.000000e-01

 Standard Electronic Orientation quadrupole field applied
 Nucleus-field energy     =    -0.0000000355 hartrees
 Requested basis set is 6-31G(d)
 There are 24 shells and 84 basis functions
 A cutoff of  1.0D-09 yielded    268 shell pairs
 There are      3534 function pairs (      4062 Cartesian)
 Smallest overlap matrix eigenvalue = 4.84E-03
 Guess from superposition of atomic densities
 Warning:  Energy on first SCF cycle will be non-variational
 SAD guess density has 46.000000 electrons
 Long-range K will be added via erf
 Coulomb attenuation parameter = 0.2 bohr**(-1)
 An unrestricted hybrid HF-DFT SCF calculation will be
 performed using Relaxed Constraint Minimization + Pulay DIIS
 Exchange:     0.2220 Hartree-Fock + 1.0000 wB97X-D + LR-HF
 Correlation:  1.0000 wB97X-D
 Using Euler-Maclaurin-Lebedev (75,302) quadrature formula
 Dispersion:   Grimme D
 SCF converges when DIIS error is below 1.0E-04
 using 6 threads for integral computing
 -------------------------------------------------------
 OpenMP Integral computing Module                
 Release: version 1.0, May 2013, Q-Chem Inc. Pittsburgh 
 -------------------------------------------------------
 using 6 threads for integral computing
 -------------------------------------------------------
 OpenMP Integral computing Module                
 Release: version 1.0, May 2013, Q-Chem Inc. Pittsburgh 
 -------------------------------------------------------
 ---------------------------------------
  Cycle       Energy         DIIS Error
 ---------------------------------------
    1    -411.0335155174      8.84E-02
    2    -409.6591913698      1.95E-02
    3    -409.7630890642      4.42E-03
    4    -409.9111666921      4.66E-03
    5    -409.9173234072      6.43E-04 Done RCA. Switching to DIIS
    6    -409.9255217419      5.53E-04
    7    -409.9259282402      1.02E-04
    8    -409.9260100496      5.53E-05 Convergence criterion met
 ---------------------------------------
 <S^2> = 2.0158
 SCF time:  CPU 14.96 s  wall 2.51 s
 SCF   energy in the small basis set = -409.92601005
 Total energy in the small basis set = -409.92601005
 ----------------------------------------------------
  Cycle       Energy    
 ----------------------------------------------------
    1     -41.7565207708     -4.18E+01
 Long-range K will be added via erf
 Coulomb attenuation parameter = 0.2 bohr**(-1)
 An unrestricted hybrid HF-DFT SCF calculation will be
 performed using Relaxed Constraint Minimization + Pulay DIIS
 Exchange:     0.2220 Hartree-Fock + 1.0000 wB97X-D + LR-HF
 Correlation:  1.0000 wB97X-D
 Using Euler-Maclaurin-Lebedev (75,302) quadrature formula
 Dispersion:   Grimme D
 SCF converges when DIIS error is below 1.0E-05
 Basis2 calculation detected. Using small basis as guess for larger.
 SCFMinFind is unable to tell whether the solution found is close.
 Resetting ReadMinima to 0 and attempting to follow guess.
 SCFMinFind following SCF Guess.
 using 6 threads for integral computing
 -------------------------------------------------------
 OpenMP Integral computing Module                
 Release: version 1.0, May 2013, Q-Chem Inc. Pittsburgh 
 -------------------------------------------------------
 using 6 threads for integral computing
 -------------------------------------------------------
 OpenMP Integral computing Module                
 Release: version 1.0, May 2013, Q-Chem Inc. Pittsburgh 
 -------------------------------------------------------
 ---------------------------------------
  Cycle       Energy         DIIS Error
 ---------------------------------------
    1    -410.0130211699      8.04E-03
    2    -410.0192449807      4.32E-03
    3    -410.0418738644      1.24E-03
    4    -410.0743912129      1.20E-03
    5    -410.0770029887      1.50E-04 Done RCA. Switching to DIIS
    6    -410.0809261837      1.54E-04
    7    -410.0811053102      5.71E-05
    8    -410.0812010946      2.27E-05
    9    -410.0812325466      1.20E-05
   10    -410.0812423264      5.88E-06 Convergence criterion met
 ---------------------------------------
 <S^2> = 2.0181
 SCF time:  CPU 66.39 s  wall 11.10 s
 SCF   energy in the final basis set = -410.08124233
 Total energy in the final basis set = -410.08124233
 
 --------------------------------------------------------------
 
                    Orbital Energies (a.u.)
 --------------------------------------------------------------
 
 Alpha MOs
 -- Occupied --
-19.4120 -19.4007 -19.3507 -19.3485 -14.7737 -14.6204  -1.4452  -1.3699
 -1.2603  -1.2078  -0.8748  -0.7770  -0.7201  -0.7187  -0.6865  -0.6570
 -0.6359  -0.6295  -0.5036  -0.4961  -0.4653  -0.4618  -0.4382  -0.3410
 -- Virtual --
 -0.0233   0.0097   0.0763   0.1150   0.1257   0.1362   0.1370   0.1701
  0.1789   0.1854   0.2272   0.2398   0.2480   0.2681   0.2758   0.2892
  0.3035   0.3252   0.3435   0.3443   0.3490   0.3610   0.3681   0.3833
  0.4038   0.4309   0.4441   0.4589   0.4856   0.5264   0.7486   0.7618
  0.7998   0.8296   0.8584   0.8759   0.9407   0.9457   0.9754   1.0177
  1.0270   1.0441   1.0496   1.0732   1.0763   1.0893   1.1177   1.1279
  1.1387   1.1550   1.1583   1.1794   1.2231   1.2366   1.2595   1.3209
  1.4362   1.4607   1.5215   1.5495   1.5674   1.5842   1.5966   1.6190
  1.6632   1.6809   1.7018   1.7899   1.8215   1.9014   1.9229   1.9400
  1.9784   2.1222   2.2054   2.2620   2.3330   2.3650   2.4415   2.4978
  2.5376   2.5657   2.6911   2.8081   3.5040   3.5362   3.5748   3.6245
  3.6300   3.6598   3.6903   3.7115   3.7235   3.7737   3.7928   3.8922
  3.9510   3.9937   4.0173   4.0720   4.0923   4.4210   4.4527   4.4834
  4.4987   4.5894   4.6456   4.6638   4.6959   4.7085   4.7369   4.7673
  4.8295   4.9087   4.9945   4.9988   5.0179   5.0249   5.0403   5.0468
  5.0636   5.0820   5.0970   5.1123   5.1242   5.1438   5.1653   5.1746
  5.2043   5.2738   5.3170   5.3816   5.4006   5.4247   5.4542   5.5064
  5.5299   5.5576   5.6300   5.6752   5.8235   5.8654   5.9876   6.1049
  6.3307   6.5321   6.6531   6.6607   6.7011   6.7275   6.7388   6.7654
  6.7901   6.8237   6.8755   6.9067   6.9486   6.9944   7.0984   7.1003
  7.1640   7.1718   7.1958   7.2732   7.3117   7.3522   7.4616   7.5663
  7.6677   7.6939   7.8147   7.8494   7.9060   8.2795  35.9155  36.1225
 49.9934  50.1646  50.2347  50.2639
 
 Beta MOs
 -- Occupied --
-19.3990 -19.3826 -19.3489 -19.3483 -14.7734 -14.6025  -1.4406  -1.3316
 -1.2577  -1.1747  -0.8307  -0.7451  -0.7165  -0.7043  -0.6737  -0.6055
 -0.5825  -0.5580  -0.4798  -0.4714  -0.4629  -0.4472
 -- Virtual --
 -0.1521  -0.0218  -0.0084   0.0616   0.0856   0.1216   0.1372   0.1404
  0.1417   0.1729   0.1831   0.1895   0.2286   0.2440   0.2507   0.2703
  0.2785   0.2917   0.3101   0.3264   0.3451   0.3459   0.3509   0.3627
  0.3705   0.3908   0.4100   0.4372   0.4475   0.4655   0.5025   0.5322
  0.7601   0.7693   0.8141   0.8494   0.8721   0.8811   0.9441   0.9526
  0.9868   1.0247   1.0359   1.0594   1.0605   1.0812   1.0865   1.1095
  1.1247   1.1373   1.1491   1.1624   1.1709   1.1939   1.2357   1.2453
  1.2753   1.3375   1.4503   1.4724   1.5265   1.5535   1.5715   1.5952
  1.6149   1.6419   1.6803   1.7014   1.7153   1.7927   1.8297   1.9132
  1.9275   1.9575   1.9926   2.1361   2.2162   2.2758   2.3479   2.3757
  2.4547   2.5119   2.5404   2.5720   2.6997   2.8120   3.5314   3.5708
  3.5896   3.6380   3.6510   3.6612   3.7050   3.7245   3.7339   3.8007
  3.8620   3.9118   3.9796   4.0117   4.0188   4.0847   4.1085   4.4237
  4.4566   4.4890   4.5021   4.6183   4.6515   4.6992   4.7261   4.7281
  4.7665   4.8051   4.8700   4.9592   5.0127   5.0152   5.0424   5.0463
  5.0555   5.0622   5.0793   5.0898   5.1102   5.1270   5.1501   5.1667
  5.1978   5.2002   5.2135   5.3012   5.3341   5.4015   5.4037   5.4389
  5.4669   5.5332   5.5509   5.5681   5.6516   5.6925   5.8285   5.8720
  6.0040   6.1423   6.3428   6.5345   6.6798   6.6981   6.7266   6.7696
  6.7913   6.7993   6.8030   6.8310   6.8777   6.9085   6.9815   7.0064
  7.1146   7.1219   7.1667   7.2071   7.2248   7.2805   7.3291   7.3672
  7.4875   7.5746   7.6954   7.7230   7.8243   7.8675   7.9130   8.2820
 35.9371  36.1229  50.0071  50.1814  50.2369  50.2638
 --------------------------------------------------------------
 
 -----------------------------------------------------------------
                    Cartesian Multipole Moments
 -----------------------------------------------------------------
    Charge (ESU x 10^10)
                -0.0000
    Dipole Moment (Debye)
         X      -0.4564      Y      -0.5425      Z       0.4678
       Tot       0.8494
    Quadrupole Moments (Debye-Ang)
        XX     -33.9093     XY      -0.1150     YY     -33.6607
        XZ      -1.8203     YZ       0.0295     ZZ     -28.6807
    Octopole Moments (Debye-Ang^2)
       XXX     -34.8567    XXY     -13.4876    XYY     -10.9970
       YYY     -36.1075    XXZ     -97.0171    XYZ       0.6329
       YYZ     -91.3225    XZZ     -16.8169    YZZ      -9.6150
       ZZZ    -254.8583
    Hexadecapole Moments (Debye-Ang^3)
      XXXX    -160.3149   XXXY     -53.6344   XXYY     -83.4552
      XYYY     -51.6971   YYYY    -346.6818   XXXZ     -82.2643
      XXYZ     -13.2602   XYYZ     -23.5283   YYYZ     -18.6066
      XXZZ    -322.6327   XYZZ     -12.6539   YYZZ    -326.1196
      XZZZ     -93.3507   YZZZ     -20.8726   ZZZZ   -1581.6209
 -----------------------------------------------------------------
Archival summary:
1\1\centos77-c5\SP\ProcedureUnspecified\BasisUnspecified\42(3)\shihchen\MonJul1315:17:322020MonJul1315:17:322020\0\\#,ProcedureUnspecified,BasisUnspecified,\\0,3\N\O,1,1.18339\O,1,1.19032,2,132.087\O,1,1.42048,2,119.081,3,-179.712,0\N,4,1.64349,1,111.633,2,2.58945,0\O,5,1.16839,4,120.904,1,-84.3051,0\\\@

 Total job time:  16.01s(wall), 85.69s(cpu) 
 Mon Jul 13 15:17:32 2020

        *************************************************************
        *                                                           *
        *  Thank you very much for using Q-Chem.  Have a nice day.  *
        *                                                           *
        *************************************************************


