                  Welcome to Q-Chem
     A Quantum Leap Into The Future Of Chemistry


 Q-Chem 5.3 (devel), Q-Chem, Inc., Pleasanton, CA (2020)

 Yihan Shao,  Zhengting Gan,  E. Epifanovsky,  A. T. B. Gilbert,  M. Wormit,  
 J. Kussmann,  A. W. Lange,  A. Behn,  Jia Deng,  Xintian Feng,  D. Ghosh,  
 M. Goldey,  P. R. Horn,  L. D. Jacobson,  I. Kaliman,  T. Kus,  A. Landau,  
 Jie Liu,  E. I. Proynov,  R. M. Richard,  R. P. Steele,  E. J. Sundstrom,  
 H. L. Woodcock III,  P. M. Zimmerman,  D. Zuev,  B. Alam,  B. Albrecht,  
 E. Alguire,  S. A. Baeppler,  D. Barton,  Z. Benda,  Y. A. Bernard,  
 E. J. Berquist,  K. B. Bravaya,  H. Burton,  K. Carter-Fenk,  D. Casanova,  
 Chun-Min Chang,  Yunqing Chen,  A. Chien,  K. D. Closser,  M. P. Coons,  
 S. Coriani,  S. Dasgupta,  A. L. Dempwolff,  M. Diedenhofen,  Hainam Do,  
 R. G. Edgar,  Po-Tung Fang,  S. Faraji,  S. Fatehi,  Qingguo Feng,  
 J. Fosso-Tande,  J. Gayvert,  Qinghui Ge,  A. Ghysels,  G. Gidofalvi,  
 J. Gomes,  J. Gonthier,  A. Gunina,  D. Hait,  M. W. D. Hanson-Heine,  
 P. H. P. Harbach,  A. W. Hauser,  M. F. Herbst,  J. E. Herr,  
 E. G. Hohenstein,  Z. C. Holden,  Kerwin Hui,  B. C. Huynh,  T.-C. Jagau,  
 Hyunjun Ji,  B. Kaduk,  K. Khistyaev,  Jaehoon Kim,  P. Klunzinger,  K. Koh,  
 D. Kosenkov,  L. Koulias,  T. Kowalczyk,  C. M. Krauter,  A. Kunitsa,  
 Ka Un Lao,  A. Laurent,  K. V. Lawler,  Joonho Lee,  D. Lefrancois,  
 S. Lehtola,  D. S. Levine,  Yi-Pei Li,  You-Sheng Lin,  Fenglai Liu,  
 Kuan-Yu Liu,  E. Livshits,  M. Loipersberger,  A. Luenser,  P. Manohar,  
 E. Mansoor,  S. F. Manzer,  Shan-Ping Mao,  Yuezhi Mao,  N. Mardirossian,  
 A. V. Marenich,  T. Markovich,  L. A. Martinez-Martinez,  S. A. Maurer,  
 N. J. Mayhall,  S. C. McKenzie,  J.-M. Mewes,  P. Morgante,  A. F. Morrison,  
 J. W. Mullinax,  K. Nanda,  T. S. Nguyen-Beck,  R. Olivares-Amaya,  
 K. J. Oosterbaan,  J. A. Parkhill,  S. K. Paul,  F. Pavosevic,  Zheng Pei,  
 T. M. Perrine,  F. Plasser,  P. Pokhilko,  S. Prager,  A. Prociuk,  
 E. Ramos,  B. Rana,  D. R. Rehn,  F. Rob,  M. Scheurer,  M. Schneider,  
 N. Sergueev,  S. M. Sharada,  S. Sharma,  D. W. Small,  T. Stauch,  
 C. J. Stein,  T. Stein,  Yu-Chuan Su,  S. P. Veccham,  Zhen Tao,  
 A. J. W. Thom,  A. Tkatchenko,  T. Tsuchimochi,  N. M. Tubman,  L. Vogt,  
 M. L. Vidal,  O. Vydrov,  M. A. Watson,  J. Wenzel,  M. de Wergifosse,  
 T. A. Wesolowski,  A. White,  J. Witte,  A. Yamada,  Jun Yang,  K. Yao,  
 S. Yeganeh,  S. R. Yost,  Zhi-Qiang You,  A. Zech,  Igor Ying Zhang,  
 Xing Zhang,  Yan Zhao,  Ying Zhu,  B. R. Brooks,  G. K. L. Chan,  
 C. J. Cramer,  M. S. Gordon,  W. J. Hehre,  A. Klamt,  M. W. Schmidt,  
 C. D. Sherrill,  D. G. Truhlar,  A. Aspuru-Guzik,  R. Baer,  A. T. Bell,  
 N. A. Besley,  Jeng-Da Chai,  A. E. DePrince, III,  R. A. DiStasio Jr.,  
 A. Dreuw,  B. D. Dunietz,  T. R. Furlani,  Chao-Ping Hsu,  Yousung Jung,  
 Jing Kong,  D. S. Lambrecht,  WanZhen Liang,  C. Ochsenfeld,  
 V. A. Rassolov,  L. V. Slipchenko,  J. E. Subotnik,  T. Van Voorhis,  
 J. M. Herbert,  A. I. Krylov,  P. M. W. Gill,  M. Head-Gordon

 Contributors to earlier versions of Q-Chem not listed above: 
 R. D. Adamson,  B. Austin,  J. Baker,  G. J. O. Beran,  K. Brandhorst,  
 S. T. Brown,  E. F. C. Byrd,  A. K. Chakraborty,  C.-L. Cheng,  
 Siu Hung Chien,  D. M. Chipman,  D. L. Crittenden,  H. Dachsel,  
 R. J. Doerksen,  A. D. Dutoi,  L. Fusti-Molnar,  W. A. Goddard III,  
 A. Golubeva-Zadorozhnaya,  S. R. Gwaltney,  G. Hawkins,  A. Heyden,  
 S. Hirata,  G. Kedziora,  F. J. Keil,  C. Kelley,  Jihan Kim,  R. A. King,  
 R. Z. Khaliullin,  P. P. Korambath,  W. Kurlancheek,  A. M. Lee,  M. S. Lee,  
 S. V. Levchenko,  Ching Yeh Lin,  D. Liotard,  R. C. Lochan,  I. Lotan,  
 P. E. Maslen,  N. Nair,  D. P. O'Neill,  D. Neuhauser,  E. Neuscamman,  
 C. M. Oana,  R. Olson,  B. Peters,  R. Peverati,  P. A. Pieniazek,  
 Y. M. Rhee,  J. Ritchie,  M. A. Rohrdanz,  E. Rosta,  N. J. Russ,  
 H. F. Schaefer III,  N. E. Schultz,  N. Shenvi,  A. C. Simmonett,  A. Sodt,  
 D. Stuck,  K. S. Thanthiriwatte,  V. Vanovschi,  Tao Wang,  A. Warshel,  
 C. F. Williams,  Q. Wu,  X. Xu,  W. Zhang

 Please cite Q-Chem as follows:
 Y. Shao et al., Mol. Phys. 113, 184-215 (2015)
 DOI: 10.1080/00268976.2014.952696

 Q-Chem 5.3.0 for Intel X86 EM64T Linux

 Parts of Q-Chem use Armadillo 9.800.1 (Horizon Scraper).
 http://arma.sourceforge.net/

 Q-Chem begins on Mon Jul 13 15:05:27 2020  

Host: centos77-c5
0

     Scratch files written to /tmp/29025.centos77-h1/qchem28776//
Processing $rem in /opt/qchem-5.3.0-intel2020u1//config/preferences:
Processing $rem in /home/shihchengli/.qchemrc:

Checking the input file for inconsistencies... 	...done.

--------------------------------------------------------------
User input:
--------------------------------------------------------------
$rem
   JOBTYPE  sp
   EXCHANGE   omegaB97X-D
   BASIS   6-311+G(2df,2pd)
   UNRESTRICTED   True
   max_scf_cycles   250
   geom_opt_max_cycles   1500
   basis2 6-31G*
   scf_algorithm rca_diis
   SYM_IGNORE  TRUE
   print_input   true
   geom_opt_dmax   80
   pop_mulliken false
   XC_GRID 000075000302
$end

$molecule
0 3
N       0.8681961442     1.1212829811     2.4585771876
O       -0.0867968366     1.7033941664     2.8660066467
O       1.9795561336     1.4695016578     2.2487151433
N       -0.0874760864     -0.9543299227     3.5624922939
O       -1.2389815194     -1.0135229409     3.7513755517
O       0.5104932948     -0.2313368318     2.2131330668
$end
--------------------------------------------------------------
 ----------------------------------------------------------------
             Standard Nuclear Orientation (Angstroms)
    I     Atom           X                Y                Z
 ----------------------------------------------------------------
    1      N       0.8681961442     1.1212829811     2.4585771876
    2      O      -0.0867968366     1.7033941664     2.8660066467
    3      O       1.9795561336     1.4695016578     2.2487151433
    4      N      -0.0874760864    -0.9543299227     3.5624922939
    5      O      -1.2389815194    -1.0135229409     3.7513755517
    6      O       0.5104932948    -0.2313368318     2.2131330668
 ----------------------------------------------------------------
 Nuclear Repulsion Energy =         232.05583440 hartrees
 There are       24 alpha and       22 beta electrons
 Requested basis set is 6-311+G(2df,2pd)
 There are 48 shells and 204 basis functions

 Total QAlloc Memory Limit   2000 MB
 Mega-Array Size       188 MB
 MEM_STATIC part       192 MB

                       Distance Matrix (Angstroms)
             N (  1)   O (  2)   O (  3)   N (  4)   O (  5)
   O (  2)  1.190321
   O (  3)  1.183393  2.169232
   N (  4)  2.537737  2.747470  3.445808
   O (  5)  3.266332  3.081079  4.333865  1.168394
   O (  6)  1.420484  2.127483  2.247724  1.643489  2.457370
 
 A cutoff of  1.0D-09 yielded   1030 shell pairs
 There are     19240 function pairs (     25255 Cartesian)
 Smallest overlap matrix eigenvalue = 4.37E-04

 Scale SEOQF with 1.000000e-01/1.000000e-01/1.000000e-01

 Standard Electronic Orientation quadrupole field applied
 Nucleus-field energy     =    -0.0000000353 hartrees
 Requested basis set is 6-31G(d)
 There are 24 shells and 84 basis functions
 A cutoff of  1.0D-09 yielded    268 shell pairs
 There are      3534 function pairs (      4062 Cartesian)
 Smallest overlap matrix eigenvalue = 5.01E-03
 Guess from superposition of atomic densities
 Warning:  Energy on first SCF cycle will be non-variational
 SAD guess density has 46.000000 electrons
 Long-range K will be added via erf
 Coulomb attenuation parameter = 0.2 bohr**(-1)
 An unrestricted hybrid HF-DFT SCF calculation will be
 performed using Relaxed Constraint Minimization + Pulay DIIS
 Exchange:     0.2220 Hartree-Fock + 1.0000 wB97X-D + LR-HF
 Correlation:  1.0000 wB97X-D
 Using Euler-Maclaurin-Lebedev (75,302) quadrature formula
 Dispersion:   Grimme D
 SCF converges when DIIS error is below 1.0E-04
 using 6 threads for integral computing
 -------------------------------------------------------
 OpenMP Integral computing Module                
 Release: version 1.0, May 2013, Q-Chem Inc. Pittsburgh 
 -------------------------------------------------------
 using 6 threads for integral computing
 -------------------------------------------------------
 OpenMP Integral computing Module                
 Release: version 1.0, May 2013, Q-Chem Inc. Pittsburgh 
 -------------------------------------------------------
 ---------------------------------------
  Cycle       Energy         DIIS Error
 ---------------------------------------
    1    -411.0315625683      8.84E-02
    2    -409.6363340046      1.98E-02
    3    -409.7452496327      4.23E-03
    4    -409.8983896581      4.42E-03
    5    -409.9039390776      6.06E-04 Done RCA. Switching to DIIS
    6    -409.9114132512      4.61E-04
    7    -409.9117535599      1.63E-04
    8    -409.9118348908      7.25E-05 Convergence criterion met
 ---------------------------------------
 <S^2> = 2.0155
 SCF time:  CPU 14.35 s  wall 2.41 s
 SCF   energy in the small basis set = -409.91183489
 Total energy in the small basis set = -409.91183489
 ----------------------------------------------------
  Cycle       Energy    
 ----------------------------------------------------
    1     -41.7628822807     -4.18E+01
 Long-range K will be added via erf
 Coulomb attenuation parameter = 0.2 bohr**(-1)
 An unrestricted hybrid HF-DFT SCF calculation will be
 performed using Relaxed Constraint Minimization + Pulay DIIS
 Exchange:     0.2220 Hartree-Fock + 1.0000 wB97X-D + LR-HF
 Correlation:  1.0000 wB97X-D
 Using Euler-Maclaurin-Lebedev (75,302) quadrature formula
 Dispersion:   Grimme D
 SCF converges when DIIS error is below 1.0E-05
 Basis2 calculation detected. Using small basis as guess for larger.
 SCFMinFind is unable to tell whether the solution found is close.
 Resetting ReadMinima to 0 and attempting to follow guess.
 SCFMinFind following SCF Guess.
 using 6 threads for integral computing
 -------------------------------------------------------
 OpenMP Integral computing Module                
 Release: version 1.0, May 2013, Q-Chem Inc. Pittsburgh 
 -------------------------------------------------------
 using 6 threads for integral computing
 -------------------------------------------------------
 OpenMP Integral computing Module                
 Release: version 1.0, May 2013, Q-Chem Inc. Pittsburgh 
 -------------------------------------------------------
 ---------------------------------------
  Cycle       Energy         DIIS Error
 ---------------------------------------
    1    -409.9833055628      8.13E-03
    2    -409.9887995227      4.69E-03
    3    -410.0168299551      1.24E-03
    4    -410.0580249321      1.28E-03
    5    -410.0607589438      1.89E-04 Done RCA. Switching to DIIS
    6    -410.0652173527      1.87E-04
    7    -410.0658630236      8.46E-05
    8    -410.0664520397      5.84E-05
    9    -410.0668630015      4.01E-05
   10    -410.0672653672      2.87E-05
   11    -410.0675183768      1.76E-05
   12    -410.0675927088      1.58E-05
   13    -410.0676140530      5.07E-06 Convergence criterion met
 ---------------------------------------
 <S^2> = 2.0181
 SCF time:  CPU 82.87 s  wall 13.85 s
 SCF   energy in the final basis set = -410.06761405
 Total energy in the final basis set = -410.06761405
 
 --------------------------------------------------------------
 
                    Orbital Energies (a.u.)
 --------------------------------------------------------------
 
 Alpha MOs
 -- Occupied --
-19.4061 -19.4012 -19.3534 -19.3373 -14.7679 -14.6265  -1.4412  -1.3737
 -1.2573  -1.2012  -0.8772  -0.7772  -0.7242  -0.7130  -0.6748  -0.6558
 -0.6393  -0.6311  -0.5129  -0.4837  -0.4635  -0.4594  -0.4306  -0.3447
 -- Virtual --
 -0.0369   0.0140   0.0830   0.1167   0.1261   0.1348   0.1415   0.1680
  0.1764   0.1864   0.2312   0.2384   0.2492   0.2733   0.2883   0.2911
  0.2940   0.3243   0.3459   0.3481   0.3565   0.3669   0.3691   0.3769
  0.4065   0.4283   0.4506   0.4719   0.5032   0.5262   0.7086   0.7756
  0.7826   0.8337   0.8455   0.8625   0.9223   0.9351   0.9839   1.0024
  1.0189   1.0428   1.0649   1.0748   1.0955   1.1001   1.1181   1.1293
  1.1375   1.1636   1.1830   1.2087   1.2289   1.2401   1.2965   1.3275
  1.3950   1.4406   1.5263   1.5439   1.5640   1.5841   1.6120   1.6143
  1.6410   1.6692   1.7182   1.7685   1.8054   1.9310   1.9485   1.9710
  2.0161   2.1147   2.1723   2.2554   2.3107   2.3873   2.4299   2.4982
  2.5276   2.5441   2.6709   2.7900   3.4481   3.5298   3.5344   3.6269
  3.6419   3.6698   3.7065   3.7316   3.7608   3.7769   3.8147   3.9262
  3.9647   3.9969   4.0137   4.0521   4.0654   4.4209   4.4506   4.4968
  4.5096   4.5843   4.6412   4.6620   4.6923   4.7185   4.7279   4.7603
  4.8406   4.8853   5.0029   5.0097   5.0260   5.0389   5.0423   5.0441
  5.0734   5.0801   5.0870   5.1015   5.1296   5.1430   5.1618   5.2034
  5.2161   5.2465   5.2974   5.3551   5.4140   5.4430   5.4778   5.4985
  5.5144   5.6059   5.6314   5.6702   5.8021   5.9237   6.0030   6.1192
  6.3037   6.5386   6.6502   6.6726   6.6770   6.7255   6.7333   6.7719
  6.8151   6.8225   6.8435   6.9056   6.9758   7.0541   7.0765   7.1391
  7.1511   7.1741   7.1940   7.2603   7.2960   7.3708   7.4701   7.5389
  7.6168   7.6885   7.7931   7.8620   7.9316   8.2876  35.9091  36.1286
 49.9829  50.1584  50.2432  50.2571
 
 Beta MOs
 -- Occupied --
-19.3882 -19.3878 -19.3526 -19.3368 -14.7681 -14.6084  -1.4371  -1.3351
 -1.2546  -1.1680  -0.8319  -0.7474  -0.7100  -0.7010  -0.6711  -0.6008
 -0.5840  -0.5637  -0.4953  -0.4663  -0.4574  -0.4245
 -- Virtual --
 -0.1631  -0.0256  -0.0098   0.0565   0.0942   0.1214   0.1362   0.1418
  0.1480   0.1719   0.1801   0.1909   0.2352   0.2419   0.2506   0.2773
  0.2907   0.2960   0.2967   0.3258   0.3477   0.3509   0.3589   0.3689
  0.3729   0.3845   0.4130   0.4340   0.4584   0.4751   0.5183   0.5278
  0.7231   0.7821   0.7991   0.8472   0.8528   0.8716   0.9343   0.9394
  0.9933   1.0124   1.0299   1.0582   1.0727   1.0969   1.1041   1.1126
  1.1258   1.1376   1.1551   1.1680   1.1902   1.2254   1.2387   1.2539
  1.3123   1.3413   1.4003   1.4530   1.5321   1.5592   1.5758   1.5894
  1.6276   1.6342   1.6556   1.6891   1.7307   1.7743   1.8111   1.9406
  1.9563   1.9824   2.0306   2.1327   2.1856   2.2697   2.3211   2.3958
  2.4506   2.5110   2.5313   2.5485   2.6748   2.7920   3.4635   3.5619
  3.5704   3.6429   3.6552   3.6829   3.7099   3.7445   3.7908   3.8252
  3.8434   3.9437   3.9897   4.0116   4.0227   4.0658   4.0761   4.4225
  4.4576   4.4992   4.5129   4.6052   4.6516   4.6970   4.7333   4.7413
  4.7488   4.8057   4.8699   4.9376   5.0296   5.0442   5.0483   5.0499
  5.0527   5.0603   5.0878   5.0939   5.0986   5.1235   5.1392   5.1694
  5.1927   5.2119   5.2391   5.2770   5.3158   5.3595   5.4291   5.4588
  5.4917   5.5142   5.5358   5.6288   5.6543   5.6830   5.8055   5.9413
  6.0150   6.1562   6.3085   6.5412   6.6821   6.6978   6.7119   6.7733
  6.7935   6.7982   6.8194   6.8268   6.8491   6.9085   7.0092   7.0668
  7.0856   7.1691   7.1739   7.1990   7.2222   7.2742   7.3046   7.3763
  7.4947   7.5427   7.6488   7.7175   7.7963   7.8688   7.9512   8.2884
 35.9309  36.1284  49.9969  50.1755  50.2440  50.2577
 --------------------------------------------------------------
 
 -----------------------------------------------------------------
                    Cartesian Multipole Moments
 -----------------------------------------------------------------
    Charge (ESU x 10^10)
                -0.0000
    Dipole Moment (Debye)
         X      -0.1620      Y      -0.8934      Z       0.1951
       Tot       0.9287
    Quadrupole Moments (Debye-Ang)
        XX     -34.3582     XY      -0.3334     YY     -33.7967
        XZ       0.6783     YZ      -3.5323     ZZ     -29.2286
    Octopole Moments (Debye-Ang^2)
       XXX     -37.0948    XXY     -13.5744    XYY     -12.0080
       YYY     -40.2600    XXZ     -95.9317    XYZ      -0.5133
       YYZ     -96.2965    XZZ      -4.9193    YZZ     -23.1430
       ZZZ    -254.9259
    Hexadecapole Moments (Debye-Ang^3)
      XXXX    -240.4816   XXXY     -85.7902   XXYY     -92.0456
      XYYY     -81.0003   YYYY    -300.3503   XXXZ     -52.5045
      XXYZ     -21.3482   XYYZ     -16.9373   YYYZ     -73.8867
      XXZZ    -322.5713   XYZZ     -25.3902   YYZZ    -334.9752
      XZZZ     -15.8802   YZZZ     -92.9133   ZZZZ   -1554.4403
 -----------------------------------------------------------------
Archival summary:
1\1\centos77-c5\SP\ProcedureUnspecified\BasisUnspecified\42(3)\shihchen\MonJul1315:05:462020MonJul1315:05:462020\0\\#,ProcedureUnspecified,BasisUnspecified,\\0,3\N\O,1,1.18339\O,1,1.19032,2,132.087\O,1,1.42048,2,119.081,3,-179.712,0\N,4,1.64349,1,111.633,2,122.589,0\O,5,1.16839,4,120.904,1,95.6949,0\\\@

 Total job time:  18.60s(wall), 101.33s(cpu) 
 Mon Jul 13 15:05:46 2020

        *************************************************************
        *                                                           *
        *  Thank you very much for using Q-Chem.  Have a nice day.  *
        *                                                           *
        *************************************************************


