                  Welcome to Q-Chem
     A Quantum Leap Into The Future Of Chemistry


 Q-Chem 5.3 (devel), Q-Chem, Inc., Pleasanton, CA (2020)

 Yihan Shao,  Zhengting Gan,  E. Epifanovsky,  A. T. B. Gilbert,  M. Wormit,  
 J. Kussmann,  A. W. Lange,  A. Behn,  Jia Deng,  Xintian Feng,  D. Ghosh,  
 M. Goldey,  P. R. Horn,  L. D. Jacobson,  I. Kaliman,  T. Kus,  A. Landau,  
 Jie Liu,  E. I. Proynov,  R. M. Richard,  R. P. Steele,  E. J. Sundstrom,  
 H. L. Woodcock III,  P. M. Zimmerman,  D. Zuev,  B. Alam,  B. Albrecht,  
 E. Alguire,  S. A. Baeppler,  D. Barton,  Z. Benda,  Y. A. Bernard,  
 E. J. Berquist,  K. B. Bravaya,  H. Burton,  K. Carter-Fenk,  D. Casanova,  
 Chun-Min Chang,  Yunqing Chen,  A. Chien,  K. D. Closser,  M. P. Coons,  
 S. Coriani,  S. Dasgupta,  A. L. Dempwolff,  M. Diedenhofen,  Hainam Do,  
 R. G. Edgar,  Po-Tung Fang,  S. Faraji,  S. Fatehi,  Qingguo Feng,  
 J. Fosso-Tande,  J. Gayvert,  Qinghui Ge,  A. Ghysels,  G. Gidofalvi,  
 J. Gomes,  J. Gonthier,  A. Gunina,  D. Hait,  M. W. D. Hanson-Heine,  
 P. H. P. Harbach,  A. W. Hauser,  M. F. Herbst,  J. E. Herr,  
 E. G. Hohenstein,  Z. C. Holden,  Kerwin Hui,  B. C. Huynh,  T.-C. Jagau,  
 Hyunjun Ji,  B. Kaduk,  K. Khistyaev,  Jaehoon Kim,  P. Klunzinger,  K. Koh,  
 D. Kosenkov,  L. Koulias,  T. Kowalczyk,  C. M. Krauter,  A. Kunitsa,  
 Ka Un Lao,  A. Laurent,  K. V. Lawler,  Joonho Lee,  D. Lefrancois,  
 S. Lehtola,  D. S. Levine,  Yi-Pei Li,  You-Sheng Lin,  Fenglai Liu,  
 Kuan-Yu Liu,  E. Livshits,  M. Loipersberger,  A. Luenser,  P. Manohar,  
 E. Mansoor,  S. F. Manzer,  Shan-Ping Mao,  Yuezhi Mao,  N. Mardirossian,  
 A. V. Marenich,  T. Markovich,  L. A. Martinez-Martinez,  S. A. Maurer,  
 N. J. Mayhall,  S. C. McKenzie,  J.-M. Mewes,  P. Morgante,  A. F. Morrison,  
 J. W. Mullinax,  K. Nanda,  T. S. Nguyen-Beck,  R. Olivares-Amaya,  
 K. J. Oosterbaan,  J. A. Parkhill,  S. K. Paul,  F. Pavosevic,  Zheng Pei,  
 T. M. Perrine,  F. Plasser,  P. Pokhilko,  S. Prager,  A. Prociuk,  
 E. Ramos,  B. Rana,  D. R. Rehn,  F. Rob,  M. Scheurer,  M. Schneider,  
 N. Sergueev,  S. M. Sharada,  S. Sharma,  D. W. Small,  T. Stauch,  
 C. J. Stein,  T. Stein,  Yu-Chuan Su,  S. P. Veccham,  Zhen Tao,  
 A. J. W. Thom,  A. Tkatchenko,  T. Tsuchimochi,  N. M. Tubman,  L. Vogt,  
 M. L. Vidal,  O. Vydrov,  M. A. Watson,  J. Wenzel,  M. de Wergifosse,  
 T. A. Wesolowski,  A. White,  J. Witte,  A. Yamada,  Jun Yang,  K. Yao,  
 S. Yeganeh,  S. R. Yost,  Zhi-Qiang You,  A. Zech,  Igor Ying Zhang,  
 Xing Zhang,  Yan Zhao,  Ying Zhu,  B. R. Brooks,  G. K. L. Chan,  
 C. J. Cramer,  M. S. Gordon,  W. J. Hehre,  A. Klamt,  M. W. Schmidt,  
 C. D. Sherrill,  D. G. Truhlar,  A. Aspuru-Guzik,  R. Baer,  A. T. Bell,  
 N. A. Besley,  Jeng-Da Chai,  A. E. DePrince, III,  R. A. DiStasio Jr.,  
 A. Dreuw,  B. D. Dunietz,  T. R. Furlani,  Chao-Ping Hsu,  Yousung Jung,  
 Jing Kong,  D. S. Lambrecht,  WanZhen Liang,  C. Ochsenfeld,  
 V. A. Rassolov,  L. V. Slipchenko,  J. E. Subotnik,  T. Van Voorhis,  
 J. M. Herbert,  A. I. Krylov,  P. M. W. Gill,  M. Head-Gordon

 Contributors to earlier versions of Q-Chem not listed above: 
 R. D. Adamson,  B. Austin,  J. Baker,  G. J. O. Beran,  K. Brandhorst,  
 S. T. Brown,  E. F. C. Byrd,  A. K. Chakraborty,  C.-L. Cheng,  
 Siu Hung Chien,  D. M. Chipman,  D. L. Crittenden,  H. Dachsel,  
 R. J. Doerksen,  A. D. Dutoi,  L. Fusti-Molnar,  W. A. Goddard III,  
 A. Golubeva-Zadorozhnaya,  S. R. Gwaltney,  G. Hawkins,  A. Heyden,  
 S. Hirata,  G. Kedziora,  F. J. Keil,  C. Kelley,  Jihan Kim,  R. A. King,  
 R. Z. Khaliullin,  P. P. Korambath,  W. Kurlancheek,  A. M. Lee,  M. S. Lee,  
 S. V. Levchenko,  Ching Yeh Lin,  D. Liotard,  R. C. Lochan,  I. Lotan,  
 P. E. Maslen,  N. Nair,  D. P. O'Neill,  D. Neuhauser,  E. Neuscamman,  
 C. M. Oana,  R. Olson,  B. Peters,  R. Peverati,  P. A. Pieniazek,  
 Y. M. Rhee,  J. Ritchie,  M. A. Rohrdanz,  E. Rosta,  N. J. Russ,  
 H. F. Schaefer III,  N. E. Schultz,  N. Shenvi,  A. C. Simmonett,  A. Sodt,  
 D. Stuck,  K. S. Thanthiriwatte,  V. Vanovschi,  Tao Wang,  A. Warshel,  
 C. F. Williams,  Q. Wu,  X. Xu,  W. Zhang

 Please cite Q-Chem as follows:
 Y. Shao et al., Mol. Phys. 113, 184-215 (2015)
 DOI: 10.1080/00268976.2014.952696

 Q-Chem 5.3.0 for Intel X86 EM64T Linux

 Parts of Q-Chem use Armadillo 9.800.1 (Horizon Scraper).
 http://arma.sourceforge.net/

 Q-Chem begins on Mon Jul 13 15:18:05 2020  

Host: centos77-c5
0

     Scratch files written to /tmp/29025.centos77-h1/qchem129228//
Processing $rem in /opt/qchem-5.3.0-intel2020u1//config/preferences:
Processing $rem in /home/shihchengli/.qchemrc:

Checking the input file for inconsistencies... 	...done.

--------------------------------------------------------------
User input:
--------------------------------------------------------------
$rem
   JOBTYPE  sp
   EXCHANGE   omegaB97X-D
   BASIS   6-311+G(2df,2pd)
   UNRESTRICTED   True
   max_scf_cycles   250
   geom_opt_max_cycles   1500
   basis2 6-31G*
   scf_algorithm rca_diis
   SYM_IGNORE  TRUE
   print_input   true
   geom_opt_dmax   80
   pop_mulliken false
   XC_GRID 000075000302
$end

$molecule
0 3
N       0.6817458752     1.1189403448     2.4335595660
O       0.5489889632     2.0655105491     1.7241624697
O       1.6414246623     0.5976086719     2.8892450529
N       -0.5026600151     -0.6787687531     3.7772602719
O       0.1766785809     -1.5988137847     3.5381751983
O       -0.6011869363     0.5905120818     2.7378973313
$end
--------------------------------------------------------------
 ----------------------------------------------------------------
             Standard Nuclear Orientation (Angstroms)
    I     Atom           X                Y                Z
 ----------------------------------------------------------------
    1      N       0.6817458752     1.1189403448     2.4335595660
    2      O       0.5489889632     2.0655105491     1.7241624697
    3      O       1.6414246623     0.5976086719     2.8892450529
    4      N      -0.5026600151    -0.6787687531     3.7772602719
    5      O       0.1766785809    -1.5988137847     3.5381751983
    6      O      -0.6011869363     0.5905120818     2.7378973313
 ----------------------------------------------------------------
 Nuclear Repulsion Energy =         234.90706323 hartrees
 There are       24 alpha and       22 beta electrons
 Requested basis set is 6-311+G(2df,2pd)
 There are 48 shells and 204 basis functions

 Total QAlloc Memory Limit   2000 MB
 Mega-Array Size       188 MB
 MEM_STATIC part       192 MB

                       Distance Matrix (Angstroms)
             N (  1)   O (  2)   O (  3)   N (  4)   O (  5)
   O (  2)  1.190321
   O (  3)  1.183393  2.169232
   N (  4)  2.537737  3.585003  2.648549
   O (  5)  2.976820  4.105670  2.718614  1.168394
   O (  6)  1.420484  2.127483  2.247724  1.643489  2.457370
 
 A cutoff of  1.0D-09 yielded   1042 shell pairs
 There are     19463 function pairs (     25607 Cartesian)
 Smallest overlap matrix eigenvalue = 6.23E-04

 Scale SEOQF with 1.000000e-01/1.000000e-01/1.000000e-01

 Standard Electronic Orientation quadrupole field applied
 Nucleus-field energy     =    -0.0000000357 hartrees
 Requested basis set is 6-31G(d)
 There are 24 shells and 84 basis functions
 A cutoff of  1.0D-09 yielded    270 shell pairs
 There are      3544 function pairs (      4074 Cartesian)
 Smallest overlap matrix eigenvalue = 4.79E-03
 Guess from superposition of atomic densities
 Warning:  Energy on first SCF cycle will be non-variational
 SAD guess density has 46.000000 electrons
 Long-range K will be added via erf
 Coulomb attenuation parameter = 0.2 bohr**(-1)
 An unrestricted hybrid HF-DFT SCF calculation will be
 performed using Relaxed Constraint Minimization + Pulay DIIS
 Exchange:     0.2220 Hartree-Fock + 1.0000 wB97X-D + LR-HF
 Correlation:  1.0000 wB97X-D
 Using Euler-Maclaurin-Lebedev (75,302) quadrature formula
 Dispersion:   Grimme D
 SCF converges when DIIS error is below 1.0E-04
 using 6 threads for integral computing
 -------------------------------------------------------
 OpenMP Integral computing Module                
 Release: version 1.0, May 2013, Q-Chem Inc. Pittsburgh 
 -------------------------------------------------------
 using 6 threads for integral computing
 -------------------------------------------------------
 OpenMP Integral computing Module                
 Release: version 1.0, May 2013, Q-Chem Inc. Pittsburgh 
 -------------------------------------------------------
 ---------------------------------------
  Cycle       Energy         DIIS Error
 ---------------------------------------
    1    -411.0361541974      8.85E-02
    2    -409.6559289693      1.95E-02
    3    -409.7599236523      4.43E-03
    4    -409.9081985150      4.66E-03
    5    -409.9144094657      6.47E-04 Done RCA. Switching to DIIS
    6    -409.9227932071      5.55E-04
    7    -409.9232476176      1.46E-04
    8    -409.9233481540      7.30E-05 Convergence criterion met
 ---------------------------------------
 <S^2> = 2.0154
 SCF time:  CPU 15.00 s  wall 2.51 s
 SCF   energy in the small basis set = -409.92334815
 Total energy in the small basis set = -409.92334815
 ----------------------------------------------------
  Cycle       Energy    
 ----------------------------------------------------
    1     -41.7586245989     -4.18E+01
 Long-range K will be added via erf
 Coulomb attenuation parameter = 0.2 bohr**(-1)
 An unrestricted hybrid HF-DFT SCF calculation will be
 performed using Relaxed Constraint Minimization + Pulay DIIS
 Exchange:     0.2220 Hartree-Fock + 1.0000 wB97X-D + LR-HF
 Correlation:  1.0000 wB97X-D
 Using Euler-Maclaurin-Lebedev (75,302) quadrature formula
 Dispersion:   Grimme D
 SCF converges when DIIS error is below 1.0E-05
 Basis2 calculation detected. Using small basis as guess for larger.
 SCFMinFind is unable to tell whether the solution found is close.
 Resetting ReadMinima to 0 and attempting to follow guess.
 SCFMinFind following SCF Guess.
 using 6 threads for integral computing
 -------------------------------------------------------
 OpenMP Integral computing Module                
 Release: version 1.0, May 2013, Q-Chem Inc. Pittsburgh 
 -------------------------------------------------------
 using 6 threads for integral computing
 -------------------------------------------------------
 OpenMP Integral computing Module                
 Release: version 1.0, May 2013, Q-Chem Inc. Pittsburgh 
 -------------------------------------------------------
 ---------------------------------------
  Cycle       Energy         DIIS Error
 ---------------------------------------
    1    -410.0113587992      8.03E-03
    2    -410.0193262553      4.21E-03
    3    -410.0408328465      1.21E-03
    4    -410.0718505338      1.20E-03
    5    -410.0743189449      1.52E-04 Done RCA. Switching to DIIS
    6    -410.0780376315      1.50E-04
    7    -410.0782186513      5.77E-05
    8    -410.0783328186      2.48E-05
    9    -410.0783737039      1.35E-05
   10    -410.0783859164      6.97E-06 Convergence criterion met
 ---------------------------------------
 <S^2> = 2.0180
 SCF time:  CPU 67.07 s  wall 11.21 s
 SCF   energy in the final basis set = -410.07838592
 Total energy in the final basis set = -410.07838592
 
 --------------------------------------------------------------
 
                    Orbital Energies (a.u.)
 --------------------------------------------------------------
 
 Alpha MOs
 -- Occupied --
-19.4117 -19.4015 -19.3514 -19.3487 -14.7744 -14.6190  -1.4462  -1.3706
 -1.2613  -1.2074  -0.8755  -0.7770  -0.7201  -0.7177  -0.6868  -0.6591
 -0.6421  -0.6213  -0.5045  -0.4992  -0.4663  -0.4602  -0.4395  -0.3381
 -- Virtual --
 -0.0235   0.0108   0.0764   0.1117   0.1281   0.1362   0.1386   0.1697
  0.1780   0.1886   0.2281   0.2344   0.2440   0.2698   0.2846   0.2954
  0.2997   0.3230   0.3427   0.3487   0.3495   0.3577   0.3720   0.3877
  0.4144   0.4265   0.4410   0.4658   0.4719   0.5288   0.7486   0.7627
  0.7890   0.8332   0.8491   0.8790   0.9264   0.9407   0.9785   1.0099
  1.0248   1.0298   1.0455   1.0709   1.0773   1.1039   1.1114   1.1292
  1.1323   1.1435   1.1659   1.1990   1.2258   1.2425   1.2857   1.3332
  1.4445   1.4736   1.5321   1.5442   1.5634   1.5692   1.6035   1.6040
  1.6428   1.6644   1.7240   1.7954   1.8417   1.8931   1.9177   1.9497
  1.9813   2.1351   2.1838   2.2582   2.3325   2.3632   2.4193   2.4816
  2.5381   2.5657   2.7066   2.8081   3.5151   3.5265   3.5733   3.6062
  3.6353   3.6557   3.6851   3.7147   3.7386   3.7686   3.7869   3.8868
  3.9443   3.9800   4.0161   4.0734   4.1189   4.4250   4.4583   4.4865
  4.4938   4.5960   4.6491   4.6579   4.7008   4.7153   4.7335   4.7583
  4.8265   4.9143   4.9914   5.0021   5.0120   5.0238   5.0383   5.0460
  5.0736   5.0760   5.0899   5.1246   5.1309   5.1461   5.1575   5.1747
  5.2306   5.2959   5.3143   5.3724   5.4026   5.4355   5.4721   5.4976
  5.5186   5.5605   5.6233   5.6710   5.8225   5.8643   5.9829   6.1003
  6.3245   6.5309   6.6487   6.6558   6.7120   6.7308   6.7447   6.7671
  6.7916   6.8243   6.8828   6.9069   6.9411   7.0017   7.1021   7.1179
  7.1587   7.1674   7.1974   7.2718   7.3128   7.3612   7.4080   7.5697
  7.6688   7.6911   7.8141   7.8452   7.9093   8.2770  35.9172  36.1223
 49.9926  50.1624  50.2353  50.2641
 
 Beta MOs
 -- Occupied --
-19.3990 -19.3830 -19.3491 -19.3488 -14.7743 -14.6012  -1.4415  -1.3320
 -1.2584  -1.1751  -0.8308  -0.7472  -0.7171  -0.7021  -0.6739  -0.6091
 -0.5791  -0.5574  -0.4802  -0.4729  -0.4631  -0.4463
 -- Virtual --
 -0.1544  -0.0263  -0.0003   0.0631   0.0856   0.1200   0.1357   0.1397
  0.1440   0.1722   0.1845   0.1923   0.2306   0.2361   0.2476   0.2723
  0.2868   0.3003   0.3036   0.3241   0.3447   0.3503   0.3520   0.3593
  0.3752   0.3928   0.4177   0.4395   0.4436   0.4710   0.4882   0.5354
  0.7608   0.7677   0.8094   0.8547   0.8593   0.8830   0.9328   0.9485
  0.9893   1.0141   1.0387   1.0442   1.0570   1.0797   1.0859   1.1112
  1.1210   1.1392   1.1456   1.1543   1.1753   1.2101   1.2336   1.2614
  1.2959   1.3541   1.4581   1.4843   1.5378   1.5485   1.5694   1.5830
  1.6208   1.6246   1.6658   1.6774   1.7348   1.7982   1.8548   1.9070
  1.9253   1.9605   1.9952   2.1570   2.1890   2.2734   2.3491   2.3716
  2.4301   2.4987   2.5402   2.5694   2.7164   2.8118   3.5414   3.5600
  3.5895   3.6248   3.6511   3.6573   3.6975   3.7297   3.7470   3.8033
  3.8497   3.9046   3.9696   4.0029   4.0171   4.0845   4.1333   4.4282
  4.4613   4.4910   4.4985   4.6264   4.6550   4.6863   4.7346   4.7405
  4.7635   4.7925   4.8676   4.9591   5.0092   5.0222   5.0405   5.0446
  5.0503   5.0633   5.0861   5.0875   5.1054   5.1289   5.1670   5.1707
  5.1751   5.1981   5.2496   5.3232   5.3334   5.3913   5.4054   5.4487
  5.4878   5.5232   5.5431   5.5708   5.6456   5.6867   5.8286   5.8711
  5.9998   6.1358   6.3365   6.5335   6.6696   6.6972   6.7450   6.7634
  6.7898   6.8051   6.8112   6.8333   6.8863   6.9095   6.9750   7.0130
  7.1180   7.1389   7.1675   7.1974   7.2301   7.2769   7.3295   7.3762
  7.4331   7.5774   7.6969   7.7203   7.8240   7.8626   7.9173   8.2797
 35.9385  36.1226  50.0060  50.1797  50.2378  50.2640
 --------------------------------------------------------------
 
 -----------------------------------------------------------------
                    Cartesian Multipole Moments
 -----------------------------------------------------------------
    Charge (ESU x 10^10)
                -0.0000
    Dipole Moment (Debye)
         X      -0.4988      Y      -0.5628      Z       0.4363
       Tot       0.8694
    Quadrupole Moments (Debye-Ang)
        XX     -33.8921     XY       0.2258     YY     -33.5488
        XZ      -1.8999     YZ      -0.1065     ZZ     -28.8214
    Octopole Moments (Debye-Ang^2)
       XXX     -34.3179    XXY     -13.0800    XYY     -11.0717
       YYY     -37.1947    XXZ     -96.5634    XYZ       1.9955
       YYZ     -90.9381    XZZ     -16.9869    YZZ      -9.8597
       ZZZ    -255.8740
    Hexadecapole Moments (Debye-Ang^3)
      XXXX    -162.4427   XXXY     -44.1962   XXYY     -79.6575
      XYYY     -42.0419   YYYY    -325.8678   XXXZ     -79.7719
      XXYZ     -12.5773   XYYZ     -23.7451   YYYZ     -25.3179
      XXZZ    -319.4655   XYZZ      -4.3814   YYZZ    -319.9546
      XZZZ     -93.3175   YZZZ     -22.7226   ZZZZ   -1583.2656
 -----------------------------------------------------------------
Archival summary:
1\1\centos77-c5\SP\ProcedureUnspecified\BasisUnspecified\42(3)\shihchen\MonJul1315:18:222020MonJul1315:18:222020\0\\#,ProcedureUnspecified,BasisUnspecified,\\0,3\N\O,1,1.18339\O,1,1.19032,2,132.087\O,1,1.42048,2,119.081,3,-179.712,0\N,4,1.64349,1,111.633,2,2.58945,0\O,5,1.16839,4,120.904,1,-54.3051,0\\\@

 Total job time:  16.26s(wall), 86.65s(cpu) 
 Mon Jul 13 15:18:22 2020

        *************************************************************
        *                                                           *
        *  Thank you very much for using Q-Chem.  Have a nice day.  *
        *                                                           *
        *************************************************************


