                  Welcome to Q-Chem
     A Quantum Leap Into The Future Of Chemistry


 Q-Chem 5.3 (devel), Q-Chem, Inc., Pleasanton, CA (2020)

 Yihan Shao,  Zhengting Gan,  E. Epifanovsky,  A. T. B. Gilbert,  M. Wormit,  
 J. Kussmann,  A. W. Lange,  A. Behn,  Jia Deng,  Xintian Feng,  D. Ghosh,  
 M. Goldey,  P. R. Horn,  L. D. Jacobson,  I. Kaliman,  T. Kus,  A. Landau,  
 Jie Liu,  E. I. Proynov,  R. M. Richard,  R. P. Steele,  E. J. Sundstrom,  
 H. L. Woodcock III,  P. M. Zimmerman,  D. Zuev,  B. Alam,  B. Albrecht,  
 E. Alguire,  S. A. Baeppler,  D. Barton,  Z. Benda,  Y. A. Bernard,  
 E. J. Berquist,  K. B. Bravaya,  H. Burton,  K. Carter-Fenk,  D. Casanova,  
 Chun-Min Chang,  Yunqing Chen,  A. Chien,  K. D. Closser,  M. P. Coons,  
 S. Coriani,  S. Dasgupta,  A. L. Dempwolff,  M. Diedenhofen,  Hainam Do,  
 R. G. Edgar,  Po-Tung Fang,  S. Faraji,  S. Fatehi,  Qingguo Feng,  
 J. Fosso-Tande,  J. Gayvert,  Qinghui Ge,  A. Ghysels,  G. Gidofalvi,  
 J. Gomes,  J. Gonthier,  A. Gunina,  D. Hait,  M. W. D. Hanson-Heine,  
 P. H. P. Harbach,  A. W. Hauser,  M. F. Herbst,  J. E. Herr,  
 E. G. Hohenstein,  Z. C. Holden,  Kerwin Hui,  B. C. Huynh,  T.-C. Jagau,  
 Hyunjun Ji,  B. Kaduk,  K. Khistyaev,  Jaehoon Kim,  P. Klunzinger,  K. Koh,  
 D. Kosenkov,  L. Koulias,  T. Kowalczyk,  C. M. Krauter,  A. Kunitsa,  
 Ka Un Lao,  A. Laurent,  K. V. Lawler,  Joonho Lee,  D. Lefrancois,  
 S. Lehtola,  D. S. Levine,  Yi-Pei Li,  You-Sheng Lin,  Fenglai Liu,  
 Kuan-Yu Liu,  E. Livshits,  M. Loipersberger,  A. Luenser,  P. Manohar,  
 E. Mansoor,  S. F. Manzer,  Shan-Ping Mao,  Yuezhi Mao,  N. Mardirossian,  
 A. V. Marenich,  T. Markovich,  L. A. Martinez-Martinez,  S. A. Maurer,  
 N. J. Mayhall,  S. C. McKenzie,  J.-M. Mewes,  P. Morgante,  A. F. Morrison,  
 J. W. Mullinax,  K. Nanda,  T. S. Nguyen-Beck,  R. Olivares-Amaya,  
 K. J. Oosterbaan,  J. A. Parkhill,  S. K. Paul,  F. Pavosevic,  Zheng Pei,  
 T. M. Perrine,  F. Plasser,  P. Pokhilko,  S. Prager,  A. Prociuk,  
 E. Ramos,  B. Rana,  D. R. Rehn,  F. Rob,  M. Scheurer,  M. Schneider,  
 N. Sergueev,  S. M. Sharada,  S. Sharma,  D. W. Small,  T. Stauch,  
 C. J. Stein,  T. Stein,  Yu-Chuan Su,  S. P. Veccham,  Zhen Tao,  
 A. J. W. Thom,  A. Tkatchenko,  T. Tsuchimochi,  N. M. Tubman,  L. Vogt,  
 M. L. Vidal,  O. Vydrov,  M. A. Watson,  J. Wenzel,  M. de Wergifosse,  
 T. A. Wesolowski,  A. White,  J. Witte,  A. Yamada,  Jun Yang,  K. Yao,  
 S. Yeganeh,  S. R. Yost,  Zhi-Qiang You,  A. Zech,  Igor Ying Zhang,  
 Xing Zhang,  Yan Zhao,  Ying Zhu,  B. R. Brooks,  G. K. L. Chan,  
 C. J. Cramer,  M. S. Gordon,  W. J. Hehre,  A. Klamt,  M. W. Schmidt,  
 C. D. Sherrill,  D. G. Truhlar,  A. Aspuru-Guzik,  R. Baer,  A. T. Bell,  
 N. A. Besley,  Jeng-Da Chai,  A. E. DePrince, III,  R. A. DiStasio Jr.,  
 A. Dreuw,  B. D. Dunietz,  T. R. Furlani,  Chao-Ping Hsu,  Yousung Jung,  
 Jing Kong,  D. S. Lambrecht,  WanZhen Liang,  C. Ochsenfeld,  
 V. A. Rassolov,  L. V. Slipchenko,  J. E. Subotnik,  T. Van Voorhis,  
 J. M. Herbert,  A. I. Krylov,  P. M. W. Gill,  M. Head-Gordon

 Contributors to earlier versions of Q-Chem not listed above: 
 R. D. Adamson,  B. Austin,  J. Baker,  G. J. O. Beran,  K. Brandhorst,  
 S. T. Brown,  E. F. C. Byrd,  A. K. Chakraborty,  C.-L. Cheng,  
 Siu Hung Chien,  D. M. Chipman,  D. L. Crittenden,  H. Dachsel,  
 R. J. Doerksen,  A. D. Dutoi,  L. Fusti-Molnar,  W. A. Goddard III,  
 A. Golubeva-Zadorozhnaya,  S. R. Gwaltney,  G. Hawkins,  A. Heyden,  
 S. Hirata,  G. Kedziora,  F. J. Keil,  C. Kelley,  Jihan Kim,  R. A. King,  
 R. Z. Khaliullin,  P. P. Korambath,  W. Kurlancheek,  A. M. Lee,  M. S. Lee,  
 S. V. Levchenko,  Ching Yeh Lin,  D. Liotard,  R. C. Lochan,  I. Lotan,  
 P. E. Maslen,  N. Nair,  D. P. O'Neill,  D. Neuhauser,  E. Neuscamman,  
 C. M. Oana,  R. Olson,  B. Peters,  R. Peverati,  P. A. Pieniazek,  
 Y. M. Rhee,  J. Ritchie,  M. A. Rohrdanz,  E. Rosta,  N. J. Russ,  
 H. F. Schaefer III,  N. E. Schultz,  N. Shenvi,  A. C. Simmonett,  A. Sodt,  
 D. Stuck,  K. S. Thanthiriwatte,  V. Vanovschi,  Tao Wang,  A. Warshel,  
 C. F. Williams,  Q. Wu,  X. Xu,  W. Zhang

 Please cite Q-Chem as follows:
 Y. Shao et al., Mol. Phys. 113, 184-215 (2015)
 DOI: 10.1080/00268976.2014.952696

 Q-Chem 5.3.0 for Intel X86 EM64T Linux

 Parts of Q-Chem use Armadillo 9.800.1 (Horizon Scraper).
 http://arma.sourceforge.net/

 Q-Chem begins on Mon Jul 13 15:13:45 2020  

Host: centos77-c5
0

     Scratch files written to /tmp/29025.centos77-h1/qchem51049//
Processing $rem in /opt/qchem-5.3.0-intel2020u1//config/preferences:
Processing $rem in /home/shihchengli/.qchemrc:

Checking the input file for inconsistencies... 	...done.

--------------------------------------------------------------
User input:
--------------------------------------------------------------
$rem
   JOBTYPE  sp
   EXCHANGE   omegaB97X-D
   BASIS   6-311+G(2df,2pd)
   UNRESTRICTED   True
   max_scf_cycles   250
   geom_opt_max_cycles   1500
   basis2 6-31G*
   scf_algorithm rca_diis
   SYM_IGNORE  TRUE
   print_input   true
   geom_opt_dmax   80
   pop_mulliken false
   XC_GRID 000075000302
$end

$molecule
0 3
N       0.7185474578     1.2449984756     2.4486803597
O       0.3550727130     2.1759374728     1.8020719133
O       1.7029548209     1.0509948538     3.0761547326
N       0.1191598396     -1.0559214160     3.3355901840
O       -0.6703587489     -1.5572004874     4.0359651918
O       -0.2803849523     0.2361802111     2.4018375086
$end
--------------------------------------------------------------
 ----------------------------------------------------------------
             Standard Nuclear Orientation (Angstroms)
    I     Atom           X                Y                Z
 ----------------------------------------------------------------
    1      N       0.7185474578     1.2449984756     2.4486803597
    2      O       0.3550727130     2.1759374728     1.8020719133
    3      O       1.7029548209     1.0509948538     3.0761547326
    4      N       0.1191598396    -1.0559214160     3.3355901840
    5      O      -0.6703587489    -1.5572004874     4.0359651918
    6      O      -0.2803849523     0.2361802111     2.4018375086
 ----------------------------------------------------------------
 Nuclear Repulsion Energy =         229.53904514 hartrees
 There are       24 alpha and       22 beta electrons
 Requested basis set is 6-311+G(2df,2pd)
 There are 48 shells and 204 basis functions

 Total QAlloc Memory Limit   2000 MB
 Mega-Array Size       188 MB
 MEM_STATIC part       192 MB

                       Distance Matrix (Angstroms)
             N (  1)   O (  2)   O (  3)   N (  4)   O (  5)
   O (  2)  1.190321
   O (  3)  1.183393  2.169232
   N (  4)  2.537737  3.585003  2.648549
   O (  5)  3.507257  4.469688  3.654660  1.168394
   O (  6)  1.420484  2.127483  2.247724  1.643489  2.457370
 
 A cutoff of  1.0D-09 yielded   1014 shell pairs
 There are     18882 function pairs (     24761 Cartesian)
 Smallest overlap matrix eigenvalue = 7.44E-04

 Scale SEOQF with 1.000000e-01/1.000000e-01/1.000000e-01

 Standard Electronic Orientation quadrupole field applied
 Nucleus-field energy     =    -0.0000000354 hartrees
 Requested basis set is 6-31G(d)
 There are 24 shells and 84 basis functions
 A cutoff of  1.0D-09 yielded    265 shell pairs
 There are      3478 function pairs (      3998 Cartesian)
 Smallest overlap matrix eigenvalue = 4.70E-03
 Guess from superposition of atomic densities
 Warning:  Energy on first SCF cycle will be non-variational
 SAD guess density has 46.000000 electrons
 Long-range K will be added via erf
 Coulomb attenuation parameter = 0.2 bohr**(-1)
 An unrestricted hybrid HF-DFT SCF calculation will be
 performed using Relaxed Constraint Minimization + Pulay DIIS
 Exchange:     0.2220 Hartree-Fock + 1.0000 wB97X-D + LR-HF
 Correlation:  1.0000 wB97X-D
 Using Euler-Maclaurin-Lebedev (75,302) quadrature formula
 Dispersion:   Grimme D
 SCF converges when DIIS error is below 1.0E-04
 using 6 threads for integral computing
 -------------------------------------------------------
 OpenMP Integral computing Module                
 Release: version 1.0, May 2013, Q-Chem Inc. Pittsburgh 
 -------------------------------------------------------
 using 6 threads for integral computing
 -------------------------------------------------------
 OpenMP Integral computing Module                
 Release: version 1.0, May 2013, Q-Chem Inc. Pittsburgh 
 -------------------------------------------------------
 ---------------------------------------
  Cycle       Energy         DIIS Error
 ---------------------------------------
    1    -411.0328275163      8.84E-02
    2    -409.6569894403      1.95E-02
    3    -409.7602966185      4.54E-03
    4    -409.9094517404      4.81E-03
    5    -409.9160087953      6.39E-04 Done RCA. Switching to DIIS
    6    -409.9247949257      5.58E-04
    7    -409.9252289393      1.04E-04
    8    -409.9253083855      8.80E-05 Convergence criterion met
 ---------------------------------------
 <S^2> = 2.0158
 SCF time:  CPU 14.11 s  wall 2.36 s
 SCF   energy in the small basis set = -409.92530839
 Total energy in the small basis set = -409.92530839
 ----------------------------------------------------
  Cycle       Energy    
 ----------------------------------------------------
    1     -41.7574143895     -4.18E+01
 Long-range K will be added via erf
 Coulomb attenuation parameter = 0.2 bohr**(-1)
 An unrestricted hybrid HF-DFT SCF calculation will be
 performed using Relaxed Constraint Minimization + Pulay DIIS
 Exchange:     0.2220 Hartree-Fock + 1.0000 wB97X-D + LR-HF
 Correlation:  1.0000 wB97X-D
 Using Euler-Maclaurin-Lebedev (75,302) quadrature formula
 Dispersion:   Grimme D
 SCF converges when DIIS error is below 1.0E-05
 Basis2 calculation detected. Using small basis as guess for larger.
 SCFMinFind is unable to tell whether the solution found is close.
 Resetting ReadMinima to 0 and attempting to follow guess.
 SCFMinFind following SCF Guess.
 using 6 threads for integral computing
 -------------------------------------------------------
 OpenMP Integral computing Module                
 Release: version 1.0, May 2013, Q-Chem Inc. Pittsburgh 
 -------------------------------------------------------
 using 6 threads for integral computing
 -------------------------------------------------------
 OpenMP Integral computing Module                
 Release: version 1.0, May 2013, Q-Chem Inc. Pittsburgh 
 -------------------------------------------------------
 ---------------------------------------
  Cycle       Energy         DIIS Error
 ---------------------------------------
    1    -410.0142900290      8.02E-03
    2    -410.0235565503      4.15E-03
    3    -410.0447133919      1.14E-03
    4    -410.0748032043      1.21E-03
    5    -410.0770186220      1.83E-04 Done RCA. Switching to DIIS
    6    -410.0802296055      1.90E-04
    7    -410.0804234114      5.24E-05
    8    -410.0804955680      2.00E-05
    9    -410.0805176424      9.76E-06 Convergence criterion met
 ---------------------------------------
 <S^2> = 2.0182
 SCF time:  CPU 58.82 s  wall 9.84 s
 SCF   energy in the final basis set = -410.08051764
 Total energy in the final basis set = -410.08051764
 
 --------------------------------------------------------------
 
                    Orbital Energies (a.u.)
 --------------------------------------------------------------
 
 Alpha MOs
 -- Occupied --
-19.4131 -19.4000 -19.3484 -19.3470 -14.7744 -14.6201  -1.4440  -1.3692
 -1.2589  -1.2089  -0.8734  -0.7785  -0.7196  -0.7183  -0.6846  -0.6542
 -0.6429  -0.6260  -0.5030  -0.4970  -0.4639  -0.4604  -0.4388  -0.3365
 -- Virtual --
 -0.0227   0.0071   0.0729   0.1153   0.1220   0.1345   0.1411   0.1685
  0.1783   0.1928   0.2318   0.2400   0.2554   0.2649   0.2766   0.2970
  0.3007   0.3265   0.3394   0.3469   0.3498   0.3612   0.3700   0.3858
  0.4190   0.4228   0.4385   0.4664   0.4774   0.5244   0.7349   0.7617
  0.8043   0.8114   0.8765   0.8831   0.9302   0.9583   0.9860   1.0057
  1.0155   1.0396   1.0668   1.0730   1.0817   1.0876   1.1058   1.1214
  1.1309   1.1503   1.1595   1.1846   1.2127   1.2469   1.2674   1.3303
  1.4619   1.4780   1.5218   1.5375   1.5542   1.5768   1.5943   1.6104
  1.6398   1.6587   1.7279   1.7890   1.8249   1.8936   1.9155   1.9495
  1.9915   2.1397   2.1706   2.1879   2.3517   2.3708   2.4351   2.4781
  2.5380   2.5565   2.7073   2.8108   3.5106   3.5324   3.5719   3.6118
  3.6155   3.6591   3.6771   3.7291   3.7375   3.7682   3.7925   3.8832
  3.9586   3.9846   4.0171   4.0778   4.1150   4.4223   4.4530   4.4877
  4.4983   4.5981   4.6360   4.6468   4.6914   4.7184   4.7452   4.7826
  4.7950   4.8992   4.9940   5.0046   5.0211   5.0282   5.0425   5.0484
  5.0602   5.0795   5.0812   5.1128   5.1252   5.1345   5.1659   5.1782
  5.2103   5.2830   5.3259   5.3770   5.4051   5.4126   5.4668   5.5029
  5.5537   5.5581   5.6369   5.6592   5.8187   5.8639   5.9876   6.1257
  6.3301   6.5357   6.6517   6.6767   6.6862   6.7217   6.7437   6.7661
  6.7918   6.8298   6.8815   6.9074   6.9466   6.9936   7.0975   7.1017
  7.1549   7.1681   7.1951   7.2689   7.2911   7.3478   7.4437   7.5636
  7.6655   7.6883   7.8217   7.8450   7.9112   8.2761  35.9085  36.1213
 49.9870  50.1626  50.2371  50.2626
 
 Beta MOs
 -- Occupied --
-19.3992 -19.3823 -19.3474 -19.3464 -14.7745 -14.6016  -1.4397  -1.3311
 -1.2568  -1.1748  -0.8308  -0.7441  -0.7157  -0.7050  -0.6728  -0.6033
 -0.5811  -0.5630  -0.4791  -0.4709  -0.4618  -0.4465
 -- Virtual --
 -0.1480  -0.0255   0.0025   0.0568   0.0836   0.1190   0.1334   0.1386
  0.1457   0.1702   0.1805   0.1964   0.2333   0.2417   0.2606   0.2662
  0.2797   0.3004   0.3054   0.3271   0.3404   0.3486   0.3523   0.3637
  0.3723   0.3933   0.4242   0.4324   0.4420   0.4690   0.4938   0.5297
  0.7458   0.7741   0.8193   0.8274   0.8836   0.8924   0.9356   0.9677
  1.0007   1.0132   1.0210   1.0541   1.0719   1.0852   1.0950   1.1030
  1.1171   1.1291   1.1413   1.1549   1.1743   1.1975   1.2227   1.2584
  1.2808   1.3465   1.4711   1.4975   1.5354   1.5391   1.5645   1.5814
  1.6119   1.6259   1.6621   1.6748   1.7372   1.7938   1.8358   1.9078
  1.9232   1.9571   2.0095   2.1661   2.1761   2.1988   2.3575   2.3813
  2.4553   2.4951   2.5400   2.5596   2.7167   2.8148   3.5355   3.5701
  3.5892   3.6224   3.6353   3.6618   3.6903   3.7410   3.7575   3.8066
  3.8441   3.9041   3.9926   4.0023   4.0175   4.0898   4.1285   4.4244
  4.4564   4.4929   4.4997   4.6361   4.6512   4.6623   4.7245   4.7375
  4.7742   4.8216   4.8443   4.9454   5.0133   5.0249   5.0438   5.0491
  5.0556   5.0641   5.0760   5.0884   5.1065   5.1240   5.1364   5.1537
  5.1872   5.2109   5.2275   5.3109   5.3453   5.3980   5.4111   5.4239
  5.4804   5.5251   5.5583   5.5899   5.6659   5.6677   5.8241   5.8709
  6.0031   6.1629   6.3430   6.5375   6.6876   6.6982   6.7216   6.7675
  6.7855   6.7959   6.8075   6.8374   6.8842   6.9086   6.9823   7.0074
  7.1167   7.1188   7.1692   7.1944   7.2235   7.2760   7.3149   7.3557
  7.4680   7.5728   7.6939   7.7168   7.8320   7.8639   7.9186   8.2780
 35.9308  36.1213  50.0015  50.1789  50.2392  50.2625
 --------------------------------------------------------------
 
 -----------------------------------------------------------------
                    Cartesian Multipole Moments
 -----------------------------------------------------------------
    Charge (ESU x 10^10)
                -0.0000
    Dipole Moment (Debye)
         X      -0.2155      Y      -0.7756      Z       0.2086
       Tot       0.8316
    Quadrupole Moments (Debye-Ang)
        XX     -33.3475     XY      -1.1833     YY     -33.7938
        XZ      -1.4561     YZ      -0.7290     ZZ     -30.9872
    Octopole Moments (Debye-Ang^2)
       XXX     -35.0422    XXY     -13.5060    XYY     -11.1109
       YYY     -40.3454    XXZ     -96.5703    XYZ      -4.7634
       YYZ     -92.2988    XZZ     -15.5763    YZZ      -9.7934
       ZZZ    -269.5813
    Hexadecapole Moments (Debye-Ang^3)
      XXXX    -159.5696   XXXY     -72.1104   XXYY     -90.9541
      XYYY     -74.0950   YYYY    -386.1655   XXXZ     -88.6027
      XXYZ     -13.4052   XYYZ     -25.0588   YYYZ     -26.8002
      XXZZ    -324.6214   XYZZ     -40.6664   YYZZ    -337.8639
      XZZZ     -89.3540   YZZZ      -3.5970   ZZZZ   -1667.8452
 -----------------------------------------------------------------
Archival summary:
1\1\centos77-c5\SP\ProcedureUnspecified\BasisUnspecified\42(3)\shihchen\MonJul1315:14:002020MonJul1315:14:002020\0\\#,ProcedureUnspecified,BasisUnspecified,\\0,3\N\O,1,1.18339\O,1,1.19032,2,132.087\O,1,1.42048,2,119.081,3,-179.712,0\N,4,1.64349,1,111.633,2,2.58945,0\O,5,1.16839,4,120.904,1,135.695,0\\\@

 Total job time:  14.65s(wall), 77.31s(cpu) 
 Mon Jul 13 15:14:00 2020

        *************************************************************
        *                                                           *
        *  Thank you very much for using Q-Chem.  Have a nice day.  *
        *                                                           *
        *************************************************************


