                  Welcome to Q-Chem
     A Quantum Leap Into The Future Of Chemistry


 Q-Chem 5.3 (devel), Q-Chem, Inc., Pleasanton, CA (2020)

 Yihan Shao,  Zhengting Gan,  E. Epifanovsky,  A. T. B. Gilbert,  M. Wormit,  
 J. Kussmann,  A. W. Lange,  A. Behn,  Jia Deng,  Xintian Feng,  D. Ghosh,  
 M. Goldey,  P. R. Horn,  L. D. Jacobson,  I. Kaliman,  T. Kus,  A. Landau,  
 Jie Liu,  E. I. Proynov,  R. M. Richard,  R. P. Steele,  E. J. Sundstrom,  
 H. L. Woodcock III,  P. M. Zimmerman,  D. Zuev,  B. Alam,  B. Albrecht,  
 E. Alguire,  S. A. Baeppler,  D. Barton,  Z. Benda,  Y. A. Bernard,  
 E. J. Berquist,  K. B. Bravaya,  H. Burton,  K. Carter-Fenk,  D. Casanova,  
 Chun-Min Chang,  Yunqing Chen,  A. Chien,  K. D. Closser,  M. P. Coons,  
 S. Coriani,  S. Dasgupta,  A. L. Dempwolff,  M. Diedenhofen,  Hainam Do,  
 R. G. Edgar,  Po-Tung Fang,  S. Faraji,  S. Fatehi,  Qingguo Feng,  
 J. Fosso-Tande,  J. Gayvert,  Qinghui Ge,  A. Ghysels,  G. Gidofalvi,  
 J. Gomes,  J. Gonthier,  A. Gunina,  D. Hait,  M. W. D. Hanson-Heine,  
 P. H. P. Harbach,  A. W. Hauser,  M. F. Herbst,  J. E. Herr,  
 E. G. Hohenstein,  Z. C. Holden,  Kerwin Hui,  B. C. Huynh,  T.-C. Jagau,  
 Hyunjun Ji,  B. Kaduk,  K. Khistyaev,  Jaehoon Kim,  P. Klunzinger,  K. Koh,  
 D. Kosenkov,  L. Koulias,  T. Kowalczyk,  C. M. Krauter,  A. Kunitsa,  
 Ka Un Lao,  A. Laurent,  K. V. Lawler,  Joonho Lee,  D. Lefrancois,  
 S. Lehtola,  D. S. Levine,  Yi-Pei Li,  You-Sheng Lin,  Fenglai Liu,  
 Kuan-Yu Liu,  E. Livshits,  M. Loipersberger,  A. Luenser,  P. Manohar,  
 E. Mansoor,  S. F. Manzer,  Shan-Ping Mao,  Yuezhi Mao,  N. Mardirossian,  
 A. V. Marenich,  T. Markovich,  L. A. Martinez-Martinez,  S. A. Maurer,  
 N. J. Mayhall,  S. C. McKenzie,  J.-M. Mewes,  P. Morgante,  A. F. Morrison,  
 J. W. Mullinax,  K. Nanda,  T. S. Nguyen-Beck,  R. Olivares-Amaya,  
 K. J. Oosterbaan,  J. A. Parkhill,  S. K. Paul,  F. Pavosevic,  Zheng Pei,  
 T. M. Perrine,  F. Plasser,  P. Pokhilko,  S. Prager,  A. Prociuk,  
 E. Ramos,  B. Rana,  D. R. Rehn,  F. Rob,  M. Scheurer,  M. Schneider,  
 N. Sergueev,  S. M. Sharada,  S. Sharma,  D. W. Small,  T. Stauch,  
 C. J. Stein,  T. Stein,  Yu-Chuan Su,  S. P. Veccham,  Zhen Tao,  
 A. J. W. Thom,  A. Tkatchenko,  T. Tsuchimochi,  N. M. Tubman,  L. Vogt,  
 M. L. Vidal,  O. Vydrov,  M. A. Watson,  J. Wenzel,  M. de Wergifosse,  
 T. A. Wesolowski,  A. White,  J. Witte,  A. Yamada,  Jun Yang,  K. Yao,  
 S. Yeganeh,  S. R. Yost,  Zhi-Qiang You,  A. Zech,  Igor Ying Zhang,  
 Xing Zhang,  Yan Zhao,  Ying Zhu,  B. R. Brooks,  G. K. L. Chan,  
 C. J. Cramer,  M. S. Gordon,  W. J. Hehre,  A. Klamt,  M. W. Schmidt,  
 C. D. Sherrill,  D. G. Truhlar,  A. Aspuru-Guzik,  R. Baer,  A. T. Bell,  
 N. A. Besley,  Jeng-Da Chai,  A. E. DePrince, III,  R. A. DiStasio Jr.,  
 A. Dreuw,  B. D. Dunietz,  T. R. Furlani,  Chao-Ping Hsu,  Yousung Jung,  
 Jing Kong,  D. S. Lambrecht,  WanZhen Liang,  C. Ochsenfeld,  
 V. A. Rassolov,  L. V. Slipchenko,  J. E. Subotnik,  T. Van Voorhis,  
 J. M. Herbert,  A. I. Krylov,  P. M. W. Gill,  M. Head-Gordon

 Contributors to earlier versions of Q-Chem not listed above: 
 R. D. Adamson,  B. Austin,  J. Baker,  G. J. O. Beran,  K. Brandhorst,  
 S. T. Brown,  E. F. C. Byrd,  A. K. Chakraborty,  C.-L. Cheng,  
 Siu Hung Chien,  D. M. Chipman,  D. L. Crittenden,  H. Dachsel,  
 R. J. Doerksen,  A. D. Dutoi,  L. Fusti-Molnar,  W. A. Goddard III,  
 A. Golubeva-Zadorozhnaya,  S. R. Gwaltney,  G. Hawkins,  A. Heyden,  
 S. Hirata,  G. Kedziora,  F. J. Keil,  C. Kelley,  Jihan Kim,  R. A. King,  
 R. Z. Khaliullin,  P. P. Korambath,  W. Kurlancheek,  A. M. Lee,  M. S. Lee,  
 S. V. Levchenko,  Ching Yeh Lin,  D. Liotard,  R. C. Lochan,  I. Lotan,  
 P. E. Maslen,  N. Nair,  D. P. O'Neill,  D. Neuhauser,  E. Neuscamman,  
 C. M. Oana,  R. Olson,  B. Peters,  R. Peverati,  P. A. Pieniazek,  
 Y. M. Rhee,  J. Ritchie,  M. A. Rohrdanz,  E. Rosta,  N. J. Russ,  
 H. F. Schaefer III,  N. E. Schultz,  N. Shenvi,  A. C. Simmonett,  A. Sodt,  
 D. Stuck,  K. S. Thanthiriwatte,  V. Vanovschi,  Tao Wang,  A. Warshel,  
 C. F. Williams,  Q. Wu,  X. Xu,  W. Zhang

 Please cite Q-Chem as follows:
 Y. Shao et al., Mol. Phys. 113, 184-215 (2015)
 DOI: 10.1080/00268976.2014.952696

 Q-Chem 5.3.0 for Intel X86 EM64T Linux

 Parts of Q-Chem use Armadillo 9.800.1 (Horizon Scraper).
 http://arma.sourceforge.net/

 Q-Chem begins on Mon Jul 13 15:19:11 2020  

Host: centos77-c5
0

     Scratch files written to /tmp/29025.centos77-h1/qchem19770//
Processing $rem in /opt/qchem-5.3.0-intel2020u1//config/preferences:
Processing $rem in /home/shihchengli/.qchemrc:

Checking the input file for inconsistencies... 	...done.

--------------------------------------------------------------
User input:
--------------------------------------------------------------
$rem
   JOBTYPE  sp
   EXCHANGE   omegaB97X-D
   BASIS   6-311+G(2df,2pd)
   UNRESTRICTED   True
   max_scf_cycles   250
   geom_opt_max_cycles   1500
   basis2 6-31G*
   scf_algorithm rca_diis
   SYM_IGNORE  TRUE
   print_input   true
   geom_opt_dmax   80
   pop_mulliken false
   XC_GRID 000075000302
$end

$molecule
0 3
N       0.6650460009     1.0799337602     2.4289873700
O       0.5869903339     2.1128581689     1.8426101294
O       1.5930161423     0.4289634593     2.7688821107
N       -0.6162846799     -0.7610393405     3.6160495544
O       0.3618903533     -1.3937236924     3.7056574555
O       -0.6456670203     0.6279967544     2.7381132700
$end
--------------------------------------------------------------
 ----------------------------------------------------------------
             Standard Nuclear Orientation (Angstroms)
    I     Atom           X                Y                Z
 ----------------------------------------------------------------
    1      N       0.6650460009     1.0799337602     2.4289873700
    2      O       0.5869903339     2.1128581689     1.8426101294
    3      O       1.5930161423     0.4289634593     2.7688821107
    4      N      -0.6162846799    -0.7610393405     3.6160495544
    5      O       0.3618903533    -1.3937236924     3.7056574555
    6      O      -0.6456670203     0.6279967544     2.7381132700
 ----------------------------------------------------------------
 Nuclear Repulsion Energy =         237.51057999 hartrees
 There are       24 alpha and       22 beta electrons
 Requested basis set is 6-311+G(2df,2pd)
 There are 48 shells and 204 basis functions

 Total QAlloc Memory Limit   2000 MB
 Mega-Array Size       188 MB
 MEM_STATIC part       192 MB

                       Distance Matrix (Angstroms)
             N (  1)   O (  2)   O (  3)   N (  4)   O (  5)
   O (  2)  1.190321
   O (  3)  1.183393  2.169232
   N (  4)  2.537737  3.585003  2.648549
   O (  5)  2.800138  3.977151  2.390692  1.168394
   O (  6)  1.420484  2.127483  2.247724  1.643489  2.457370
 
 A cutoff of  1.0D-09 yielded   1049 shell pairs
 There are     19600 function pairs (     25811 Cartesian)
 Smallest overlap matrix eigenvalue = 4.60E-04

 Scale SEOQF with 1.000000e-01/1.000000e-01/1.000000e-01

 Standard Electronic Orientation quadrupole field applied
 Nucleus-field energy     =    -0.0000000359 hartrees
 Requested basis set is 6-31G(d)
 There are 24 shells and 84 basis functions
 A cutoff of  1.0D-09 yielded    275 shell pairs
 There are      3566 function pairs (      4098 Cartesian)
 Smallest overlap matrix eigenvalue = 4.68E-03
 Guess from superposition of atomic densities
 Warning:  Energy on first SCF cycle will be non-variational
 SAD guess density has 46.000000 electrons
 Long-range K will be added via erf
 Coulomb attenuation parameter = 0.2 bohr**(-1)
 An unrestricted hybrid HF-DFT SCF calculation will be
 performed using Relaxed Constraint Minimization + Pulay DIIS
 Exchange:     0.2220 Hartree-Fock + 1.0000 wB97X-D + LR-HF
 Correlation:  1.0000 wB97X-D
 Using Euler-Maclaurin-Lebedev (75,302) quadrature formula
 Dispersion:   Grimme D
 SCF converges when DIIS error is below 1.0E-04
 using 6 threads for integral computing
 -------------------------------------------------------
 OpenMP Integral computing Module                
 Release: version 1.0, May 2013, Q-Chem Inc. Pittsburgh 
 -------------------------------------------------------
 using 6 threads for integral computing
 -------------------------------------------------------
 OpenMP Integral computing Module                
 Release: version 1.0, May 2013, Q-Chem Inc. Pittsburgh 
 -------------------------------------------------------
 ---------------------------------------
  Cycle       Energy         DIIS Error
 ---------------------------------------
    1    -411.0459629894      8.85E-02
    2    -409.6479663590      1.95E-02
    3    -409.7522653502      4.44E-03
    4    -409.9009424034      4.64E-03
    5    -409.9071702404      6.63E-04 Done RCA. Switching to DIIS
    6    -409.9157231678      5.88E-04
    7    -409.9162273596      2.12E-04
    8    -409.9163770465      8.27E-05 Convergence criterion met
 ---------------------------------------
 <S^2> = 2.0150
 SCF time:  CPU 14.89 s  wall 2.49 s
 SCF   energy in the small basis set = -409.91637705
 Total energy in the small basis set = -409.91637705
 ----------------------------------------------------
  Cycle       Energy    
 ----------------------------------------------------
    1     -41.7673458609     -4.18E+01
 Long-range K will be added via erf
 Coulomb attenuation parameter = 0.2 bohr**(-1)
 An unrestricted hybrid HF-DFT SCF calculation will be
 performed using Relaxed Constraint Minimization + Pulay DIIS
 Exchange:     0.2220 Hartree-Fock + 1.0000 wB97X-D + LR-HF
 Correlation:  1.0000 wB97X-D
 Using Euler-Maclaurin-Lebedev (75,302) quadrature formula
 Dispersion:   Grimme D
 SCF converges when DIIS error is below 1.0E-05
 Basis2 calculation detected. Using small basis as guess for larger.
 SCFMinFind is unable to tell whether the solution found is close.
 Resetting ReadMinima to 0 and attempting to follow guess.
 SCFMinFind following SCF Guess.
 using 6 threads for integral computing
 -------------------------------------------------------
 OpenMP Integral computing Module                
 Release: version 1.0, May 2013, Q-Chem Inc. Pittsburgh 
 -------------------------------------------------------
 using 6 threads for integral computing
 -------------------------------------------------------
 OpenMP Integral computing Module                
 Release: version 1.0, May 2013, Q-Chem Inc. Pittsburgh 
 -------------------------------------------------------
 ---------------------------------------
  Cycle       Energy         DIIS Error
 ---------------------------------------
    1    -410.0087049178      7.98E-03
    2    -410.0229171081      3.82E-03
    3    -410.0411904926      9.84E-04 Done RCA. Switching to DIIS
    4    -410.0669657408      1.03E-03
    5    -410.0704896492      1.88E-04
    6    -410.0707982572      6.81E-05
    7    -410.0709553038      4.62E-05
    8    -410.0710167057      2.52E-05
    9    -410.0710526381      1.14E-05
   10    -410.0710598422      5.15E-06 Convergence criterion met
 ---------------------------------------
 <S^2> = 2.0180
 SCF time:  CPU 63.16 s  wall 10.56 s
 SCF   energy in the final basis set = -410.07105984
 Total energy in the final basis set = -410.07105984
 
 --------------------------------------------------------------
 
                    Orbital Energies (a.u.)
 --------------------------------------------------------------
 
 Alpha MOs
 -- Occupied --
-19.4099 -19.4028 -19.3509 -19.3492 -14.7759 -14.6141  -1.4476  -1.3715
 -1.2627  -1.2063  -0.8751  -0.7803  -0.7211  -0.7124  -0.6859  -0.6605
 -0.6513  -0.6136  -0.5049  -0.5041  -0.4670  -0.4533  -0.4414  -0.3314
 -- Virtual --
 -0.0241   0.0135   0.0759   0.1059   0.1285   0.1362   0.1427   0.1689
  0.1757   0.1935   0.2227   0.2362   0.2440   0.2692   0.2821   0.2981
  0.3089   0.3207   0.3399   0.3503   0.3559   0.3580   0.3760   0.3978
  0.4261   0.4416   0.4502   0.4819   0.4929   0.5305   0.7417   0.7520
  0.7912   0.8264   0.8542   0.8894   0.9274   0.9444   0.9485   0.9944
  1.0049   1.0270   1.0631   1.0814   1.0859   1.0994   1.1162   1.1236
  1.1301   1.1555   1.1772   1.2047   1.2257   1.2452   1.3068   1.3386
  1.4537   1.4992   1.5138   1.5381   1.5537   1.5692   1.5858   1.6158
  1.6383   1.7218   1.7644   1.8047   1.8475   1.8611   1.9223   1.9755
  2.0029   2.1132   2.1920   2.2803   2.3380   2.3656   2.4095   2.4926
  2.5386   2.5779   2.7392   2.8237   3.5027   3.5337   3.5713   3.6105
  3.6267   3.6503   3.6770   3.7014   3.7516   3.7623   3.7975   3.8667
  3.9574   3.9803   4.0171   4.0850   4.1581   4.4289   4.4675   4.4870
  4.4971   4.6058   4.6511   4.6642   4.7012   4.7248   4.7326   4.7627
  4.8128   4.9446   4.9816   4.9980   5.0048   5.0232   5.0283   5.0371
  5.0737   5.0855   5.0971   5.1143   5.1285   5.1537   5.1755   5.1891
  5.2653   5.3119   5.3214   5.3506   5.4004   5.4442   5.4719   5.4896
  5.5479   5.5796   5.6189   5.6667   5.8056   5.8638   5.9850   6.1043
  6.3157   6.5325   6.6498   6.6577   6.7007   6.7262   6.7482   6.7681
  6.7998   6.8307   6.9056   6.9284   6.9623   6.9942   7.0966   7.1201
  7.1611   7.1655   7.2119   7.2703   7.3207   7.3552   7.4311   7.5686
  7.6554   7.7158   7.8288   7.8543   7.9202   8.2912  35.9222  36.1230
 49.9876  50.1698  50.2386  50.2633
 
 Beta MOs
 -- Occupied --
-19.3973 -19.3837 -19.3490 -19.3485 -14.7762 -14.5961  -1.4429  -1.3320
 -1.2591  -1.1749  -0.8295  -0.7530  -0.7182  -0.6966  -0.6728  -0.6146
 -0.5723  -0.5587  -0.4805  -0.4752  -0.4626  -0.4432
 -- Virtual --
 -0.1536  -0.0267   0.0098   0.0649   0.0868   0.1125   0.1332   0.1389
  0.1473   0.1700   0.1833   0.1990   0.2243   0.2376   0.2487   0.2720
  0.2833   0.2998   0.3158   0.3216   0.3416   0.3515   0.3579   0.3603
  0.3797   0.4036   0.4366   0.4432   0.4548   0.4856   0.5105   0.5382
  0.7535   0.7586   0.8207   0.8432   0.8604   0.8913   0.9376   0.9529
  0.9597   1.0034   1.0088   1.0410   1.0714   1.0909   1.0932   1.1109
  1.1289   1.1317   1.1426   1.1638   1.1939   1.2147   1.2391   1.2575
  1.3144   1.3591   1.4651   1.5159   1.5273   1.5425   1.5612   1.5840
  1.5982   1.6292   1.6527   1.7332   1.7777   1.8091   1.8621   1.8815
  1.9272   1.9919   2.0161   2.1323   2.1990   2.2944   2.3545   2.3736
  2.4203   2.5096   2.5413   2.5812   2.7500   2.8270   3.5292   3.5672
  3.5909   3.6261   3.6390   3.6528   3.6870   3.7227   3.7673   3.8173
  3.8298   3.8831   3.9828   4.0000   4.0229   4.0946   4.1711   4.4322
  4.4704   4.4900   4.5018   4.6383   4.6547   4.6975   4.7271   4.7491
  4.7690   4.8091   4.8463   4.9893   5.0006   5.0153   5.0335   5.0392
  5.0420   5.0598   5.0825   5.0927   5.1198   5.1299   5.1638   5.1663
  5.1907   5.2131   5.2847   5.3369   5.3475   5.3665   5.4032   5.4560
  5.4908   5.5179   5.5581   5.6076   5.6449   5.6749   5.8122   5.8709
  6.0004   6.1398   6.3275   6.5347   6.6728   6.6966   6.7453   6.7613
  6.7831   6.7842   6.8215   6.8417   6.9078   6.9639   6.9851   7.0111
  7.1181   7.1387   7.1669   7.1976   7.2396   7.2759   7.3350   7.3749
  7.4553   7.5771   7.6852   7.7400   7.8442   7.8689   7.9299   8.2938
 35.9437  36.1229  50.0007  50.1876  50.2409  50.2638
 --------------------------------------------------------------
 
 -----------------------------------------------------------------
                    Cartesian Multipole Moments
 -----------------------------------------------------------------
    Charge (ESU x 10^10)
                 0.0000
    Dipole Moment (Debye)
         X      -0.4395      Y      -0.6165      Z       0.3871
       Tot       0.8503
    Quadrupole Moments (Debye-Ang)
        XX     -33.8601     XY       0.4771     YY     -33.6091
        XZ      -1.4931     YZ      -0.3230     ZZ     -29.0409
    Octopole Moments (Debye-Ang^2)
       XXX     -33.7753    XXY     -12.6263    XYY     -11.2265
       YYY     -39.3099    XXZ     -95.8961    XYZ       2.9282
       YYZ     -91.2836    XZZ     -14.8621    YZZ      -9.6180
       ZZZ    -257.5713
    Hexadecapole Moments (Debye-Ang^3)
      XXXX    -165.6597   XXXY     -37.8863   XXYY     -77.6785
      XYYY     -36.2637   YYYY    -311.4277   XXXZ     -77.9518
      XXYZ     -11.7739   XYYZ     -24.3822   YYYZ     -34.0938
      XXZZ    -315.5751   XYZZ       1.2948   YYZZ    -316.8911
      XZZZ     -83.9073   YZZZ     -18.1824   ZZZZ   -1588.2084
 -----------------------------------------------------------------
Archival summary:
1\1\centos77-c5\SP\ProcedureUnspecified\BasisUnspecified\42(3)\shihchen\MonJul1315:19:272020MonJul1315:19:272020\0\\#,ProcedureUnspecified,BasisUnspecified,\\0,3\N\O,1,1.18339\O,1,1.19032,2,132.087\O,1,1.42048,2,119.081,3,-179.712,0\N,4,1.64349,1,111.633,2,2.58945,0\O,5,1.16839,4,120.904,1,-14.3051,0\\\@

 Total job time:  15.60s(wall), 82.37s(cpu) 
 Mon Jul 13 15:19:27 2020

        *************************************************************
        *                                                           *
        *  Thank you very much for using Q-Chem.  Have a nice day.  *
        *                                                           *
        *************************************************************


