                  Welcome to Q-Chem
     A Quantum Leap Into The Future Of Chemistry


 Q-Chem 5.3 (devel), Q-Chem, Inc., Pleasanton, CA (2020)

 Yihan Shao,  Zhengting Gan,  E. Epifanovsky,  A. T. B. Gilbert,  M. Wormit,  
 J. Kussmann,  A. W. Lange,  A. Behn,  Jia Deng,  Xintian Feng,  D. Ghosh,  
 M. Goldey,  P. R. Horn,  L. D. Jacobson,  I. Kaliman,  T. Kus,  A. Landau,  
 Jie Liu,  E. I. Proynov,  R. M. Richard,  R. P. Steele,  E. J. Sundstrom,  
 H. L. Woodcock III,  P. M. Zimmerman,  D. Zuev,  B. Alam,  B. Albrecht,  
 E. Alguire,  S. A. Baeppler,  D. Barton,  Z. Benda,  Y. A. Bernard,  
 E. J. Berquist,  K. B. Bravaya,  H. Burton,  K. Carter-Fenk,  D. Casanova,  
 Chun-Min Chang,  Yunqing Chen,  A. Chien,  K. D. Closser,  M. P. Coons,  
 S. Coriani,  S. Dasgupta,  A. L. Dempwolff,  M. Diedenhofen,  Hainam Do,  
 R. G. Edgar,  Po-Tung Fang,  S. Faraji,  S. Fatehi,  Qingguo Feng,  
 J. Fosso-Tande,  J. Gayvert,  Qinghui Ge,  A. Ghysels,  G. Gidofalvi,  
 J. Gomes,  J. Gonthier,  A. Gunina,  D. Hait,  M. W. D. Hanson-Heine,  
 P. H. P. Harbach,  A. W. Hauser,  M. F. Herbst,  J. E. Herr,  
 E. G. Hohenstein,  Z. C. Holden,  Kerwin Hui,  B. C. Huynh,  T.-C. Jagau,  
 Hyunjun Ji,  B. Kaduk,  K. Khistyaev,  Jaehoon Kim,  P. Klunzinger,  K. Koh,  
 D. Kosenkov,  L. Koulias,  T. Kowalczyk,  C. M. Krauter,  A. Kunitsa,  
 Ka Un Lao,  A. Laurent,  K. V. Lawler,  Joonho Lee,  D. Lefrancois,  
 S. Lehtola,  D. S. Levine,  Yi-Pei Li,  You-Sheng Lin,  Fenglai Liu,  
 Kuan-Yu Liu,  E. Livshits,  M. Loipersberger,  A. Luenser,  P. Manohar,  
 E. Mansoor,  S. F. Manzer,  Shan-Ping Mao,  Yuezhi Mao,  N. Mardirossian,  
 A. V. Marenich,  T. Markovich,  L. A. Martinez-Martinez,  S. A. Maurer,  
 N. J. Mayhall,  S. C. McKenzie,  J.-M. Mewes,  P. Morgante,  A. F. Morrison,  
 J. W. Mullinax,  K. Nanda,  T. S. Nguyen-Beck,  R. Olivares-Amaya,  
 K. J. Oosterbaan,  J. A. Parkhill,  S. K. Paul,  F. Pavosevic,  Zheng Pei,  
 T. M. Perrine,  F. Plasser,  P. Pokhilko,  S. Prager,  A. Prociuk,  
 E. Ramos,  B. Rana,  D. R. Rehn,  F. Rob,  M. Scheurer,  M. Schneider,  
 N. Sergueev,  S. M. Sharada,  S. Sharma,  D. W. Small,  T. Stauch,  
 C. J. Stein,  T. Stein,  Yu-Chuan Su,  S. P. Veccham,  Zhen Tao,  
 A. J. W. Thom,  A. Tkatchenko,  T. Tsuchimochi,  N. M. Tubman,  L. Vogt,  
 M. L. Vidal,  O. Vydrov,  M. A. Watson,  J. Wenzel,  M. de Wergifosse,  
 T. A. Wesolowski,  A. White,  J. Witte,  A. Yamada,  Jun Yang,  K. Yao,  
 S. Yeganeh,  S. R. Yost,  Zhi-Qiang You,  A. Zech,  Igor Ying Zhang,  
 Xing Zhang,  Yan Zhao,  Ying Zhu,  B. R. Brooks,  G. K. L. Chan,  
 C. J. Cramer,  M. S. Gordon,  W. J. Hehre,  A. Klamt,  M. W. Schmidt,  
 C. D. Sherrill,  D. G. Truhlar,  A. Aspuru-Guzik,  R. Baer,  A. T. Bell,  
 N. A. Besley,  Jeng-Da Chai,  A. E. DePrince, III,  R. A. DiStasio Jr.,  
 A. Dreuw,  B. D. Dunietz,  T. R. Furlani,  Chao-Ping Hsu,  Yousung Jung,  
 Jing Kong,  D. S. Lambrecht,  WanZhen Liang,  C. Ochsenfeld,  
 V. A. Rassolov,  L. V. Slipchenko,  J. E. Subotnik,  T. Van Voorhis,  
 J. M. Herbert,  A. I. Krylov,  P. M. W. Gill,  M. Head-Gordon

 Contributors to earlier versions of Q-Chem not listed above: 
 R. D. Adamson,  B. Austin,  J. Baker,  G. J. O. Beran,  K. Brandhorst,  
 S. T. Brown,  E. F. C. Byrd,  A. K. Chakraborty,  C.-L. Cheng,  
 Siu Hung Chien,  D. M. Chipman,  D. L. Crittenden,  H. Dachsel,  
 R. J. Doerksen,  A. D. Dutoi,  L. Fusti-Molnar,  W. A. Goddard III,  
 A. Golubeva-Zadorozhnaya,  S. R. Gwaltney,  G. Hawkins,  A. Heyden,  
 S. Hirata,  G. Kedziora,  F. J. Keil,  C. Kelley,  Jihan Kim,  R. A. King,  
 R. Z. Khaliullin,  P. P. Korambath,  W. Kurlancheek,  A. M. Lee,  M. S. Lee,  
 S. V. Levchenko,  Ching Yeh Lin,  D. Liotard,  R. C. Lochan,  I. Lotan,  
 P. E. Maslen,  N. Nair,  D. P. O'Neill,  D. Neuhauser,  E. Neuscamman,  
 C. M. Oana,  R. Olson,  B. Peters,  R. Peverati,  P. A. Pieniazek,  
 Y. M. Rhee,  J. Ritchie,  M. A. Rohrdanz,  E. Rosta,  N. J. Russ,  
 H. F. Schaefer III,  N. E. Schultz,  N. Shenvi,  A. C. Simmonett,  A. Sodt,  
 D. Stuck,  K. S. Thanthiriwatte,  V. Vanovschi,  Tao Wang,  A. Warshel,  
 C. F. Williams,  Q. Wu,  X. Xu,  W. Zhang

 Please cite Q-Chem as follows:
 Y. Shao et al., Mol. Phys. 113, 184-215 (2015)
 DOI: 10.1080/00268976.2014.952696

 Q-Chem 5.3.0 for Intel X86 EM64T Linux

 Parts of Q-Chem use Armadillo 9.800.1 (Horizon Scraper).
 http://arma.sourceforge.net/

 Q-Chem begins on Mon Jul 13 15:17:49 2020  

Host: centos77-c5
0

     Scratch files written to /tmp/29025.centos77-h1/qchem124325//
Processing $rem in /opt/qchem-5.3.0-intel2020u1//config/preferences:
Processing $rem in /home/shihchengli/.qchemrc:

Checking the input file for inconsistencies... 	...done.

--------------------------------------------------------------
User input:
--------------------------------------------------------------
$rem
   JOBTYPE  sp
   EXCHANGE   omegaB97X-D
   BASIS   6-311+G(2df,2pd)
   UNRESTRICTED   True
   max_scf_cycles   250
   geom_opt_max_cycles   1500
   basis2 6-31G*
   scf_algorithm rca_diis
   SYM_IGNORE  TRUE
   print_input   true
   geom_opt_dmax   80
   pop_mulliken false
   XC_GRID 000075000302
$end

$molecule
0 3
N       0.6878559843     1.1322456270     2.4326036628
O       0.5360407731     2.0597167443     1.7021152934
O       1.6570237878     0.6473253898     2.9079829670
N       -0.4597100591     -0.6690155003     3.8032449098
O       0.1067514030     -1.6502923703     3.5180036484
O       -0.5829707590     0.5750092195     2.7363494086
$end
--------------------------------------------------------------
 ----------------------------------------------------------------
             Standard Nuclear Orientation (Angstroms)
    I     Atom           X                Y                Z
 ----------------------------------------------------------------
    1      N       0.6878559843     1.1322456270     2.4326036628
    2      O       0.5360407731     2.0597167443     1.7021152934
    3      O       1.6570237878     0.6473253898     2.9079829670
    4      N      -0.4597100591    -0.6690155003     3.8032449098
    5      O       0.1067514030    -1.6502923703     3.5180036484
    6      O      -0.5829707590     0.5750092195     2.7363494086
 ----------------------------------------------------------------
 Nuclear Repulsion Energy =         234.07345040 hartrees
 There are       24 alpha and       22 beta electrons
 Requested basis set is 6-311+G(2df,2pd)
 There are 48 shells and 204 basis functions

 Total QAlloc Memory Limit   2000 MB
 Mega-Array Size       188 MB
 MEM_STATIC part       192 MB

                       Distance Matrix (Angstroms)
             N (  1)   O (  2)   O (  3)   N (  4)   O (  5)
   O (  2)  1.190321
   O (  3)  1.183393  2.169232
   N (  4)  2.537737  3.585003  2.648549
   O (  5)  3.042744  4.152819  2.838048  1.168394
   O (  6)  1.420484  2.127483  2.247724  1.643489  2.457370
 
 A cutoff of  1.0D-09 yielded   1037 shell pairs
 There are     19350 function pairs (     25419 Cartesian)
 Smallest overlap matrix eigenvalue = 6.56E-04

 Scale SEOQF with 1.000000e-01/1.000000e-01/1.000000e-01

 Standard Electronic Orientation quadrupole field applied
 Nucleus-field energy     =    -0.0000000356 hartrees
 Requested basis set is 6-31G(d)
 There are 24 shells and 84 basis functions
 A cutoff of  1.0D-09 yielded    270 shell pairs
 There are      3544 function pairs (      4074 Cartesian)
 Smallest overlap matrix eigenvalue = 4.82E-03
 Guess from superposition of atomic densities
 Warning:  Energy on first SCF cycle will be non-variational
 SAD guess density has 46.000000 electrons
 Long-range K will be added via erf
 Coulomb attenuation parameter = 0.2 bohr**(-1)
 An unrestricted hybrid HF-DFT SCF calculation will be
 performed using Relaxed Constraint Minimization + Pulay DIIS
 Exchange:     0.2220 Hartree-Fock + 1.0000 wB97X-D + LR-HF
 Correlation:  1.0000 wB97X-D
 Using Euler-Maclaurin-Lebedev (75,302) quadrature formula
 Dispersion:   Grimme D
 SCF converges when DIIS error is below 1.0E-04
 using 6 threads for integral computing
 -------------------------------------------------------
 OpenMP Integral computing Module                
 Release: version 1.0, May 2013, Q-Chem Inc. Pittsburgh 
 -------------------------------------------------------
 using 6 threads for integral computing
 -------------------------------------------------------
 OpenMP Integral computing Module                
 Release: version 1.0, May 2013, Q-Chem Inc. Pittsburgh 
 -------------------------------------------------------
 ---------------------------------------
  Cycle       Energy         DIIS Error
 ---------------------------------------
    1    -411.0348192788      8.84E-02
    2    -409.6576402384      1.95E-02
    3    -409.7615971293      4.42E-03
    4    -409.9096951782      4.65E-03
    5    -409.9158506627      6.45E-04 Done RCA. Switching to DIIS
    6    -409.9241142280      5.52E-04
    7    -409.9245473440      1.28E-04
    8    -409.9246390917      6.83E-05 Convergence criterion met
 ---------------------------------------
 <S^2> = 2.0155
 SCF time:  CPU 14.86 s  wall 2.49 s
 SCF   energy in the small basis set = -409.92463909
 Total energy in the small basis set = -409.92463909
 ----------------------------------------------------
  Cycle       Energy    
 ----------------------------------------------------
    1     -41.7573893729     -4.18E+01
 Long-range K will be added via erf
 Coulomb attenuation parameter = 0.2 bohr**(-1)
 An unrestricted hybrid HF-DFT SCF calculation will be
 performed using Relaxed Constraint Minimization + Pulay DIIS
 Exchange:     0.2220 Hartree-Fock + 1.0000 wB97X-D + LR-HF
 Correlation:  1.0000 wB97X-D
 Using Euler-Maclaurin-Lebedev (75,302) quadrature formula
 Dispersion:   Grimme D
 SCF converges when DIIS error is below 1.0E-05
 Basis2 calculation detected. Using small basis as guess for larger.
 SCFMinFind is unable to tell whether the solution found is close.
 Resetting ReadMinima to 0 and attempting to follow guess.
 SCFMinFind following SCF Guess.
 using 6 threads for integral computing
 -------------------------------------------------------
 OpenMP Integral computing Module                
 Release: version 1.0, May 2013, Q-Chem Inc. Pittsburgh 
 -------------------------------------------------------
 using 6 threads for integral computing
 -------------------------------------------------------
 OpenMP Integral computing Module                
 Release: version 1.0, May 2013, Q-Chem Inc. Pittsburgh 
 -------------------------------------------------------
 ---------------------------------------
  Cycle       Energy         DIIS Error
 ---------------------------------------
    1    -410.0119693811      8.04E-03
    2    -410.0188622804      4.27E-03
    3    -410.0410061929      1.23E-03
    4    -410.0729431482      1.20E-03
    5    -410.0755268944      1.49E-04 Done RCA. Switching to DIIS
    6    -410.0794245768      1.52E-04
    7    -410.0796094855      5.81E-05
    8    -410.0797199680      2.42E-05
    9    -410.0797581043      1.31E-05
   10    -410.0797697794      6.64E-06 Convergence criterion met
 ---------------------------------------
 <S^2> = 2.0180
 SCF time:  CPU 66.29 s  wall 11.08 s
 SCF   energy in the final basis set = -410.07976978
 Total energy in the final basis set = -410.07976978
 
 --------------------------------------------------------------
 
                    Orbital Energies (a.u.)
 --------------------------------------------------------------
 
 Alpha MOs
 -- Occupied --
-19.4118 -19.4012 -19.3513 -19.3488 -14.7741 -14.6197  -1.4459  -1.3703
 -1.2610  -1.2076  -0.8753  -0.7768  -0.7200  -0.7185  -0.6868  -0.6584
 -0.6400  -0.6239  -0.5043  -0.4979  -0.4660  -0.4613  -0.4389  -0.3396
 -- Virtual --
 -0.0235   0.0104   0.0765   0.1132   0.1274   0.1363   0.1378   0.1700
  0.1784   0.1873   0.2283   0.2352   0.2452   0.2694   0.2834   0.2921
  0.3005   0.3233   0.3430   0.3474   0.3492   0.3587   0.3701   0.3844
  0.4102   0.4276   0.4414   0.4621   0.4742   0.5285   0.7501   0.7640
  0.7916   0.8326   0.8504   0.8780   0.9314   0.9418   0.9803   1.0147
  1.0271   1.0361   1.0431   1.0714   1.0787   1.1013   1.1109   1.1285
  1.1377   1.1390   1.1613   1.1945   1.2294   1.2396   1.2757   1.3276
  1.4319   1.4645   1.5310   1.5475   1.5652   1.5753   1.5962   1.6136
  1.6551   1.6697   1.7146   1.7936   1.8323   1.8990   1.9190   1.9520
  1.9749   2.1268   2.1926   2.2670   2.3318   2.3650   2.4258   2.4840
  2.5379   2.5654   2.7005   2.8056   3.5106   3.5306   3.5731   3.6135
  3.6347   3.6568   3.6876   3.7126   3.7314   3.7732   3.7864   3.8897
  3.9463   3.9827   4.0165   4.0715   4.1102   4.4235   4.4561   4.4859
  4.4960   4.5900   4.6468   4.6638   4.7044   4.7093   4.7365   4.7550
  4.8313   4.9104   4.9915   5.0020   5.0143   5.0240   5.0387   5.0468
  5.0702   5.0776   5.0905   5.1243   5.1294   5.1489   5.1547   5.1745
  5.2181   5.2872   5.3151   5.3765   5.4021   5.4316   5.4658   5.5069
  5.5130   5.5587   5.6265   5.6734   5.8245   5.8643   5.9844   6.1007
  6.3269   6.5309   6.6507   6.6572   6.7093   6.7290   6.7428   6.7651
  6.7892   6.8237   6.8795   6.9067   6.9434   6.9989   7.1014   7.1103
  7.1599   7.1687   7.1965   7.2734   7.3123   7.3585   7.4260   7.5666
  7.6695   7.6916   7.8130   7.8454   7.9081   8.2781  35.9165  36.1223
 49.9938  50.1626  50.2348  50.2649
 
 Beta MOs
 -- Occupied --
-19.3990 -19.3829 -19.3492 -19.3488 -14.7740 -14.6019  -1.4412  -1.3319
 -1.2582  -1.1750  -0.8308  -0.7463  -0.7169  -0.7032  -0.6740  -0.6077
 -0.5805  -0.5575  -0.4800  -0.4724  -0.4631  -0.4469
 -- Virtual --
 -0.1538  -0.0251  -0.0035   0.0626   0.0856   0.1212   0.1364   0.1399
  0.1430   0.1726   0.1844   0.1909   0.2303   0.2378   0.2486   0.2718
  0.2859   0.2962   0.3054   0.3245   0.3449   0.3491   0.3512   0.3603
  0.3732   0.3899   0.4139   0.4390   0.4449   0.4690   0.4889   0.5349
  0.7623   0.7695   0.8098   0.8521   0.8636   0.8825   0.9368   0.9493
  0.9908   1.0186   1.0452   1.0482   1.0531   1.0818   1.0849   1.1129
  1.1209   1.1373   1.1483   1.1552   1.1672   1.2065   1.2370   1.2573
  1.2877   1.3474   1.4452   1.4759   1.5364   1.5518   1.5693   1.5880
  1.6144   1.6364   1.6768   1.6839   1.7267   1.7962   1.8435   1.9113
  1.9261   1.9661   1.9876   2.1448   2.2005   2.2822   2.3476   2.3751
  2.4368   2.5005   2.5402   2.5697   2.7101   2.8094   3.5379   3.5638
  3.5886   3.6312   3.6522   3.6581   3.7004   3.7266   3.7405   3.8015
  3.8556   3.9081   3.9725   4.0041   4.0177   4.0829   4.1253   4.4266
  4.4593   4.4906   4.5005   4.6198   4.6532   4.6927   4.7336   4.7394
  4.7609   4.7936   4.8714   4.9572   5.0095   5.0206   5.0413   5.0450
  5.0537   5.0625   5.0853   5.0875   5.1040   5.1284   5.1652   5.1720
  5.1780   5.1986   5.2346   5.3146   5.3334   5.3955   5.4050   5.4451
  5.4806   5.5316   5.5392   5.5676   5.6476   5.6906   5.8302   5.8711
  6.0013   6.1367   6.3390   6.5335   6.6720   6.6983   6.7394   6.7662
  6.7895   6.8033   6.8064   6.8319   6.8816   6.9091   6.9767   7.0102
  7.1166   7.1325   7.1669   7.1989   7.2288   7.2793   7.3294   7.3732
  7.4515   7.5744   7.6972   7.7212   7.8226   7.8630   7.9158   8.2807
 35.9379  36.1227  50.0072  50.1796  50.2373  50.2647
 --------------------------------------------------------------
 
 -----------------------------------------------------------------
                    Cartesian Multipole Moments
 -----------------------------------------------------------------
    Charge (ESU x 10^10)
                -0.0000
    Dipole Moment (Debye)
         X      -0.4915      Y      -0.5498      Z       0.4473
       Tot       0.8625
    Quadrupole Moments (Debye-Ang)
        XX     -33.9007     XY       0.1282     YY     -33.5705
        XZ      -1.9068     YZ      -0.0461     ZZ     -28.7694
    Octopole Moments (Debye-Ang^2)
       XXX     -34.4893    XXY     -13.2109    XYY     -11.0384
       YYY     -36.7541    XXZ     -96.7311    XYZ       1.6089
       YYZ     -91.0141    XZZ     -17.0979    YZZ      -9.7799
       ZZZ    -255.4746
    Hexadecapole Moments (Debye-Ang^3)
      XXXX    -161.4849   XXXY     -46.9414   XXYY     -80.7236
      XYYY     -44.8496   YYYY    -332.1366   XXXZ     -80.4647
      XXYZ     -12.8168   XYYZ     -23.6599   YYYZ     -23.0181
      XXZZ    -320.5757   XYZZ      -6.7888   YYZZ    -321.7899
      XZZZ     -94.0628   YZZZ     -22.4888   ZZZZ   -1582.4726
 -----------------------------------------------------------------
Archival summary:
1\1\centos77-c5\SP\ProcedureUnspecified\BasisUnspecified\42(3)\shihchen\MonJul1315:18:052020MonJul1315:18:052020\0\\#,ProcedureUnspecified,BasisUnspecified,\\0,3\N\O,1,1.18339\O,1,1.19032,2,132.087\O,1,1.42048,2,119.081,3,-179.712,0\N,4,1.64349,1,111.633,2,2.58945,0\O,5,1.16839,4,120.904,1,-64.3051,0\\\@

 Total job time:  16.04s(wall), 85.51s(cpu) 
 Mon Jul 13 15:18:05 2020

        *************************************************************
        *                                                           *
        *  Thank you very much for using Q-Chem.  Have a nice day.  *
        *                                                           *
        *************************************************************


