                  Welcome to Q-Chem
     A Quantum Leap Into The Future Of Chemistry


 Q-Chem 5.3 (devel), Q-Chem, Inc., Pleasanton, CA (2020)

 Yihan Shao,  Zhengting Gan,  E. Epifanovsky,  A. T. B. Gilbert,  M. Wormit,  
 J. Kussmann,  A. W. Lange,  A. Behn,  Jia Deng,  Xintian Feng,  D. Ghosh,  
 M. Goldey,  P. R. Horn,  L. D. Jacobson,  I. Kaliman,  T. Kus,  A. Landau,  
 Jie Liu,  E. I. Proynov,  R. M. Richard,  R. P. Steele,  E. J. Sundstrom,  
 H. L. Woodcock III,  P. M. Zimmerman,  D. Zuev,  B. Alam,  B. Albrecht,  
 E. Alguire,  S. A. Baeppler,  D. Barton,  Z. Benda,  Y. A. Bernard,  
 E. J. Berquist,  K. B. Bravaya,  H. Burton,  K. Carter-Fenk,  D. Casanova,  
 Chun-Min Chang,  Yunqing Chen,  A. Chien,  K. D. Closser,  M. P. Coons,  
 S. Coriani,  S. Dasgupta,  A. L. Dempwolff,  M. Diedenhofen,  Hainam Do,  
 R. G. Edgar,  Po-Tung Fang,  S. Faraji,  S. Fatehi,  Qingguo Feng,  
 J. Fosso-Tande,  J. Gayvert,  Qinghui Ge,  A. Ghysels,  G. Gidofalvi,  
 J. Gomes,  J. Gonthier,  A. Gunina,  D. Hait,  M. W. D. Hanson-Heine,  
 P. H. P. Harbach,  A. W. Hauser,  M. F. Herbst,  J. E. Herr,  
 E. G. Hohenstein,  Z. C. Holden,  Kerwin Hui,  B. C. Huynh,  T.-C. Jagau,  
 Hyunjun Ji,  B. Kaduk,  K. Khistyaev,  Jaehoon Kim,  P. Klunzinger,  K. Koh,  
 D. Kosenkov,  L. Koulias,  T. Kowalczyk,  C. M. Krauter,  A. Kunitsa,  
 Ka Un Lao,  A. Laurent,  K. V. Lawler,  Joonho Lee,  D. Lefrancois,  
 S. Lehtola,  D. S. Levine,  Yi-Pei Li,  You-Sheng Lin,  Fenglai Liu,  
 Kuan-Yu Liu,  E. Livshits,  M. Loipersberger,  A. Luenser,  P. Manohar,  
 E. Mansoor,  S. F. Manzer,  Shan-Ping Mao,  Yuezhi Mao,  N. Mardirossian,  
 A. V. Marenich,  T. Markovich,  L. A. Martinez-Martinez,  S. A. Maurer,  
 N. J. Mayhall,  S. C. McKenzie,  J.-M. Mewes,  P. Morgante,  A. F. Morrison,  
 J. W. Mullinax,  K. Nanda,  T. S. Nguyen-Beck,  R. Olivares-Amaya,  
 K. J. Oosterbaan,  J. A. Parkhill,  S. K. Paul,  F. Pavosevic,  Zheng Pei,  
 T. M. Perrine,  F. Plasser,  P. Pokhilko,  S. Prager,  A. Prociuk,  
 E. Ramos,  B. Rana,  D. R. Rehn,  F. Rob,  M. Scheurer,  M. Schneider,  
 N. Sergueev,  S. M. Sharada,  S. Sharma,  D. W. Small,  T. Stauch,  
 C. J. Stein,  T. Stein,  Yu-Chuan Su,  S. P. Veccham,  Zhen Tao,  
 A. J. W. Thom,  A. Tkatchenko,  T. Tsuchimochi,  N. M. Tubman,  L. Vogt,  
 M. L. Vidal,  O. Vydrov,  M. A. Watson,  J. Wenzel,  M. de Wergifosse,  
 T. A. Wesolowski,  A. White,  J. Witte,  A. Yamada,  Jun Yang,  K. Yao,  
 S. Yeganeh,  S. R. Yost,  Zhi-Qiang You,  A. Zech,  Igor Ying Zhang,  
 Xing Zhang,  Yan Zhao,  Ying Zhu,  B. R. Brooks,  G. K. L. Chan,  
 C. J. Cramer,  M. S. Gordon,  W. J. Hehre,  A. Klamt,  M. W. Schmidt,  
 C. D. Sherrill,  D. G. Truhlar,  A. Aspuru-Guzik,  R. Baer,  A. T. Bell,  
 N. A. Besley,  Jeng-Da Chai,  A. E. DePrince, III,  R. A. DiStasio Jr.,  
 A. Dreuw,  B. D. Dunietz,  T. R. Furlani,  Chao-Ping Hsu,  Yousung Jung,  
 Jing Kong,  D. S. Lambrecht,  WanZhen Liang,  C. Ochsenfeld,  
 V. A. Rassolov,  L. V. Slipchenko,  J. E. Subotnik,  T. Van Voorhis,  
 J. M. Herbert,  A. I. Krylov,  P. M. W. Gill,  M. Head-Gordon

 Contributors to earlier versions of Q-Chem not listed above: 
 R. D. Adamson,  B. Austin,  J. Baker,  G. J. O. Beran,  K. Brandhorst,  
 S. T. Brown,  E. F. C. Byrd,  A. K. Chakraborty,  C.-L. Cheng,  
 Siu Hung Chien,  D. M. Chipman,  D. L. Crittenden,  H. Dachsel,  
 R. J. Doerksen,  A. D. Dutoi,  L. Fusti-Molnar,  W. A. Goddard III,  
 A. Golubeva-Zadorozhnaya,  S. R. Gwaltney,  G. Hawkins,  A. Heyden,  
 S. Hirata,  G. Kedziora,  F. J. Keil,  C. Kelley,  Jihan Kim,  R. A. King,  
 R. Z. Khaliullin,  P. P. Korambath,  W. Kurlancheek,  A. M. Lee,  M. S. Lee,  
 S. V. Levchenko,  Ching Yeh Lin,  D. Liotard,  R. C. Lochan,  I. Lotan,  
 P. E. Maslen,  N. Nair,  D. P. O'Neill,  D. Neuhauser,  E. Neuscamman,  
 C. M. Oana,  R. Olson,  B. Peters,  R. Peverati,  P. A. Pieniazek,  
 Y. M. Rhee,  J. Ritchie,  M. A. Rohrdanz,  E. Rosta,  N. J. Russ,  
 H. F. Schaefer III,  N. E. Schultz,  N. Shenvi,  A. C. Simmonett,  A. Sodt,  
 D. Stuck,  K. S. Thanthiriwatte,  V. Vanovschi,  Tao Wang,  A. Warshel,  
 C. F. Williams,  Q. Wu,  X. Xu,  W. Zhang

 Please cite Q-Chem as follows:
 Y. Shao et al., Mol. Phys. 113, 184-215 (2015)
 DOI: 10.1080/00268976.2014.952696

 Q-Chem 5.3.0 for Intel X86 EM64T Linux

 Parts of Q-Chem use Armadillo 9.800.1 (Horizon Scraper).
 http://arma.sourceforge.net/

 Q-Chem begins on Mon Jul 13 15:11:05 2020  

Host: centos77-c5
0

     Scratch files written to /tmp/29025.centos77-h1/qchem1944//
Processing $rem in /opt/qchem-5.3.0-intel2020u1//config/preferences:
Processing $rem in /home/shihchengli/.qchemrc:

Checking the input file for inconsistencies... 	...done.

--------------------------------------------------------------
User input:
--------------------------------------------------------------
$rem
   JOBTYPE  sp
   EXCHANGE   omegaB97X-D
   BASIS   6-311+G(2df,2pd)
   UNRESTRICTED   True
   max_scf_cycles   250
   geom_opt_max_cycles   1500
   basis2 6-31G*
   scf_algorithm rca_diis
   SYM_IGNORE  TRUE
   print_input   true
   geom_opt_dmax   80
   pop_mulliken false
   XC_GRID 000075000302
$end

$molecule
0 3
N       0.9104136127     1.1549698903     2.7055200622
O       1.3880057578     2.0245219685     3.3632804407
O       0.5831797307     1.1084555145     1.5692217959
N       -0.7497745640     -0.6556039748     3.3424693521
O       -0.9327511379     -1.5395945539     2.6006973586
O       0.7459177308     0.0022402653     3.5191108805
$end
--------------------------------------------------------------
 ----------------------------------------------------------------
             Standard Nuclear Orientation (Angstroms)
    I     Atom           X                Y                Z
 ----------------------------------------------------------------
    1      N       0.9104136127     1.1549698903     2.7055200622
    2      O       1.3880057578     2.0245219685     3.3632804407
    3      O       0.5831797307     1.1084555145     1.5692217959
    4      N      -0.7497745640    -0.6556039748     3.3424693521
    5      O      -0.9327511379    -1.5395945539     2.6006973586
    6      O       0.7459177308     0.0022402653     3.5191108805
 ----------------------------------------------------------------
 Nuclear Repulsion Energy =         231.31553940 hartrees
 There are       24 alpha and       22 beta electrons
 Requested basis set is 6-311+G(2df,2pd)
 There are 48 shells and 204 basis functions

 Total QAlloc Memory Limit   2000 MB
 Mega-Array Size       188 MB
 MEM_STATIC part       192 MB

                       Distance Matrix (Angstroms)
             N (  1)   O (  2)   O (  3)   N (  4)   O (  5)
   O (  2)  1.190321
   O (  3)  1.183393  2.169232
   N (  4)  2.537737  3.428354  2.834269
   O (  5)  3.266332  4.320923  3.220894  1.168394
   O (  6)  1.420484  2.127483  2.247724  1.643489  2.457370
 
 A cutoff of  1.0D-09 yielded   1026 shell pairs
 There are     19182 function pairs (     25179 Cartesian)
 Smallest overlap matrix eigenvalue = 5.37E-04

 Scale SEOQF with 1.000000e-01/1.000000e-01/1.000000e-01

 Standard Electronic Orientation quadrupole field applied
 Nucleus-field energy     =    -0.0000000354 hartrees
 Requested basis set is 6-31G(d)
 There are 24 shells and 84 basis functions
 A cutoff of  1.0D-09 yielded    268 shell pairs
 There are      3534 function pairs (      4062 Cartesian)
 Smallest overlap matrix eigenvalue = 4.94E-03
 Guess from superposition of atomic densities
 Warning:  Energy on first SCF cycle will be non-variational
 SAD guess density has 46.000000 electrons
 Long-range K will be added via erf
 Coulomb attenuation parameter = 0.2 bohr**(-1)
 An unrestricted hybrid HF-DFT SCF calculation will be
 performed using Relaxed Constraint Minimization + Pulay DIIS
 Exchange:     0.2220 Hartree-Fock + 1.0000 wB97X-D + LR-HF
 Correlation:  1.0000 wB97X-D
 Using Euler-Maclaurin-Lebedev (75,302) quadrature formula
 Dispersion:   Grimme D
 SCF converges when DIIS error is below 1.0E-04
 using 6 threads for integral computing
 -------------------------------------------------------
 OpenMP Integral computing Module                
 Release: version 1.0, May 2013, Q-Chem Inc. Pittsburgh 
 -------------------------------------------------------
 using 6 threads for integral computing
 -------------------------------------------------------
 OpenMP Integral computing Module                
 Release: version 1.0, May 2013, Q-Chem Inc. Pittsburgh 
 -------------------------------------------------------
 ---------------------------------------
  Cycle       Energy         DIIS Error
 ---------------------------------------
    1    -411.0303529479      8.84E-02
    2    -409.6479272471      1.96E-02
    3    -409.7544945259      4.25E-03
    4    -409.9048872208      4.44E-03
    5    -409.9104779701      5.97E-04 Done RCA. Switching to DIIS
    6    -409.9180106778      4.73E-04
    7    -409.9183766401      1.02E-04
    8    -409.9184548000      6.14E-05 Convergence criterion met
 ---------------------------------------
 <S^2> = 2.0169
 SCF time:  CPU 14.36 s  wall 2.41 s
 SCF   energy in the small basis set = -409.91845480
 Total energy in the small basis set = -409.91845480
 ----------------------------------------------------
  Cycle       Energy    
 ----------------------------------------------------
    1     -41.7585785062     -4.18E+01
 Long-range K will be added via erf
 Coulomb attenuation parameter = 0.2 bohr**(-1)
 An unrestricted hybrid HF-DFT SCF calculation will be
 performed using Relaxed Constraint Minimization + Pulay DIIS
 Exchange:     0.2220 Hartree-Fock + 1.0000 wB97X-D + LR-HF
 Correlation:  1.0000 wB97X-D
 Using Euler-Maclaurin-Lebedev (75,302) quadrature formula
 Dispersion:   Grimme D
 SCF converges when DIIS error is below 1.0E-05
 Basis2 calculation detected. Using small basis as guess for larger.
 SCFMinFind is unable to tell whether the solution found is close.
 Resetting ReadMinima to 0 and attempting to follow guess.
 SCFMinFind following SCF Guess.
 using 6 threads for integral computing
 -------------------------------------------------------
 OpenMP Integral computing Module                
 Release: version 1.0, May 2013, Q-Chem Inc. Pittsburgh 
 -------------------------------------------------------
 using 6 threads for integral computing
 -------------------------------------------------------
 OpenMP Integral computing Module                
 Release: version 1.0, May 2013, Q-Chem Inc. Pittsburgh 
 -------------------------------------------------------
 ---------------------------------------
  Cycle       Energy         DIIS Error
 ---------------------------------------
    1    -409.9986924786      8.09E-03
    2    -410.0024489699      4.57E-03
    3    -410.0280575645      1.31E-03
    4    -410.0653917713      1.30E-03
    5    -410.0683731849      1.79E-04 Done RCA. Switching to DIIS
    6    -410.0730482539      1.79E-04
    7    -410.0733837548      7.29E-05
    8    -410.0736757337      3.81E-05
    9    -410.0738434694      2.54E-05
   10    -410.0739545972      1.61E-05
   11    -410.0740058385      9.41E-06 Convergence criterion met
 ---------------------------------------
 <S^2> = 2.0198
 SCF time:  CPU 70.87 s  wall 11.84 s
 SCF   energy in the final basis set = -410.07400584
 Total energy in the final basis set = -410.07400584
 
 --------------------------------------------------------------
 
                    Orbital Energies (a.u.)
 --------------------------------------------------------------
 
 Alpha MOs
 -- Occupied --
-19.4059 -19.4044 -19.3477 -19.3476 -14.7699 -14.6233  -1.4424  -1.3734
 -1.2576  -1.2043  -0.8757  -0.7782  -0.7238  -0.7143  -0.6790  -0.6559
 -0.6386  -0.6308  -0.5151  -0.4841  -0.4654  -0.4573  -0.4352  -0.3439
 -- Virtual --
 -0.0324   0.0143   0.0802   0.1148   0.1266   0.1354   0.1407   0.1674
  0.1771   0.1875   0.2318   0.2359   0.2515   0.2675   0.2866   0.2900
  0.2947   0.3267   0.3333   0.3495   0.3509   0.3660   0.3709   0.3753
  0.4084   0.4254   0.4561   0.4662   0.4922   0.5308   0.7124   0.7681
  0.7911   0.8299   0.8387   0.8663   0.9290   0.9406   0.9817   1.0103
  1.0170   1.0471   1.0607   1.0726   1.0921   1.1023   1.1139   1.1260
  1.1322   1.1521   1.1805   1.1901   1.2284   1.2365   1.2800   1.3281
  1.4105   1.4478   1.5270   1.5507   1.5685   1.5828   1.5854   1.6083
  1.6461   1.6699   1.7144   1.7796   1.8201   1.8998   1.9541   1.9625
  1.9990   2.1119   2.2109   2.2427   2.3044   2.3561   2.4362   2.4899
  2.5374   2.5430   2.6751   2.7915   3.4716   3.5309   3.5365   3.6288
  3.6548   3.6805   3.6918   3.7117   3.7565   3.7709   3.7914   3.9188
  3.9576   4.0099   4.0146   4.0571   4.0669   4.4170   4.4527   4.4734
  4.5124   4.5882   4.6437   4.6603   4.6940   4.7125   4.7181   4.7656
  4.8549   4.8879   5.0019   5.0093   5.0241   5.0370   5.0415   5.0444
  5.0671   5.0797   5.0893   5.1038   5.1216   5.1361   5.1649   5.1904
  5.2127   5.2688   5.2958   5.3715   5.3992   5.4210   5.4571   5.5010
  5.5263   5.6070   5.6340   5.6664   5.8017   5.9186   5.9840   6.1271
  6.2965   6.5416   6.6502   6.6724   6.6768   6.7225   6.7331   6.7690
  6.8043   6.8161   6.8553   6.9095   6.9535   7.0499   7.0924   7.1326
  7.1550   7.1705   7.1990   7.2332   7.2903   7.3519   7.4547   7.5475
  7.6470   7.6915   7.8044   7.8474   7.9181   8.2829  35.9103  36.1263
 49.9847  50.1584  50.2354  50.2604
 
 Beta MOs
 -- Occupied --
-19.3917 -19.3872 -19.3481 -19.3455 -14.7700 -14.6056  -1.4382  -1.3345
 -1.2554  -1.1711  -0.8304  -0.7484  -0.7120  -0.7020  -0.6724  -0.5996
 -0.5843  -0.5628  -0.4935  -0.4678  -0.4603  -0.4311
 -- Virtual --
 -0.1594  -0.0241  -0.0093   0.0601   0.0909   0.1206   0.1388   0.1390
  0.1453   0.1715   0.1807   0.1917   0.2357   0.2386   0.2532   0.2715
  0.2904   0.2925   0.2991   0.3285   0.3342   0.3515   0.3538   0.3675
  0.3750   0.3839   0.4127   0.4338   0.4622   0.4682   0.5080   0.5350
  0.7251   0.7812   0.7975   0.8436   0.8497   0.8772   0.9383   0.9448
  0.9917   1.0209   1.0259   1.0640   1.0686   1.0916   1.1024   1.1158
  1.1270   1.1329   1.1442   1.1605   1.1875   1.2042   1.2428   1.2456
  1.2954   1.3392   1.4207   1.4594   1.5340   1.5647   1.5773   1.5891
  1.6016   1.6261   1.6631   1.6935   1.7256   1.7845   1.8268   1.9090
  1.9582   1.9749   2.0176   2.1295   2.2248   2.2542   2.3183   2.3654
  2.4519   2.5009   2.5445   2.5479   2.6805   2.7941   3.4860   3.5631
  3.5710   3.6441   3.6713   3.6860   3.7029   3.7207   3.7812   3.7978
  3.8471   3.9372   3.9854   4.0166   4.0248   4.0719   4.0806   4.4190
  4.4600   4.4762   4.5153   4.6135   4.6474   4.6974   4.7202   4.7386
  4.7498   4.8091   4.8857   4.9387   5.0306   5.0410   5.0450   5.0476
  5.0555   5.0574   5.0884   5.0918   5.1089   5.1117   5.1339   5.1642
  5.1982   5.2002   5.2339   5.2979   5.3112   5.3809   5.4094   5.4313
  5.4796   5.5232   5.5402   5.6311   5.6529   5.6811   5.8048   5.9335
  5.9979   6.1660   6.3024   6.5442   6.6806   6.6984   6.7125   6.7717
  6.7901   6.7993   6.8106   6.8211   6.8611   6.9109   6.9782   7.0640
  7.1099   7.1633   7.1745   7.1968   7.2312   7.2424   7.3002   7.3575
  7.4799   7.5512   7.6771   7.7218   7.8100   7.8601   7.9323   8.2843
 35.9316  36.1263  49.9984  50.1759  50.2374  50.2603
 --------------------------------------------------------------
 
 -----------------------------------------------------------------
                    Cartesian Multipole Moments
 -----------------------------------------------------------------
    Charge (ESU x 10^10)
                -0.0000
    Dipole Moment (Debye)
         X      -0.4946      Y      -0.7285      Z       0.2616
       Tot       0.9186
    Quadrupole Moments (Debye-Ang)
        XX     -30.8764     XY      -1.4824     YY     -34.0454
        XZ      -2.5496     YZ      -2.3247     ZZ     -32.4734
    Octopole Moments (Debye-Ang^2)
       XXX     -30.5671    XXY     -13.0949    XYY     -14.5191
       YYY     -39.0426    XXZ     -89.2610    XYZ      -4.8113
       YYZ     -96.9654    XZZ     -22.4832    YZZ     -21.2589
       ZZZ    -283.3787
    Hexadecapole Moments (Debye-Ang^3)
      XXXX    -178.0698   XXXY    -101.1666   XXYY     -90.3138
      XYYY    -113.1356   YYYY    -337.0036   XXXZ     -93.1112
      XXYZ     -37.2003   XYYZ     -44.5583   YYYZ    -104.4838
      XXZZ    -307.8844   XYZZ     -51.0591   YYZZ    -350.9395
      XZZZ    -144.1372   YZZZ    -132.2556   ZZZZ   -1736.8068
 -----------------------------------------------------------------
Archival summary:
1\1\centos77-c5\SP\ProcedureUnspecified\BasisUnspecified\42(3)\shihchen\MonJul1315:11:222020MonJul1315:11:222020\0\\#,ProcedureUnspecified,BasisUnspecified,\\0,3\N\O,1,1.18339\O,1,1.19032,2,132.087\O,1,1.42048,2,119.081,3,-179.712,0\N,4,1.64349,1,111.633,2,-47.4106,0\O,5,1.16839,4,120.904,1,95.6949,0\\\@

 Total job time:  16.71s(wall), 89.87s(cpu) 
 Mon Jul 13 15:11:22 2020

        *************************************************************
        *                                                           *
        *  Thank you very much for using Q-Chem.  Have a nice day.  *
        *                                                           *
        *************************************************************


