                  Welcome to Q-Chem
     A Quantum Leap Into The Future Of Chemistry


 Q-Chem 5.3 (devel), Q-Chem, Inc., Pleasanton, CA (2020)

 Yihan Shao,  Zhengting Gan,  E. Epifanovsky,  A. T. B. Gilbert,  M. Wormit,  
 J. Kussmann,  A. W. Lange,  A. Behn,  Jia Deng,  Xintian Feng,  D. Ghosh,  
 M. Goldey,  P. R. Horn,  L. D. Jacobson,  I. Kaliman,  T. Kus,  A. Landau,  
 Jie Liu,  E. I. Proynov,  R. M. Richard,  R. P. Steele,  E. J. Sundstrom,  
 H. L. Woodcock III,  P. M. Zimmerman,  D. Zuev,  B. Alam,  B. Albrecht,  
 E. Alguire,  S. A. Baeppler,  D. Barton,  Z. Benda,  Y. A. Bernard,  
 E. J. Berquist,  K. B. Bravaya,  H. Burton,  K. Carter-Fenk,  D. Casanova,  
 Chun-Min Chang,  Yunqing Chen,  A. Chien,  K. D. Closser,  M. P. Coons,  
 S. Coriani,  S. Dasgupta,  A. L. Dempwolff,  M. Diedenhofen,  Hainam Do,  
 R. G. Edgar,  Po-Tung Fang,  S. Faraji,  S. Fatehi,  Qingguo Feng,  
 J. Fosso-Tande,  J. Gayvert,  Qinghui Ge,  A. Ghysels,  G. Gidofalvi,  
 J. Gomes,  J. Gonthier,  A. Gunina,  D. Hait,  M. W. D. Hanson-Heine,  
 P. H. P. Harbach,  A. W. Hauser,  M. F. Herbst,  J. E. Herr,  
 E. G. Hohenstein,  Z. C. Holden,  Kerwin Hui,  B. C. Huynh,  T.-C. Jagau,  
 Hyunjun Ji,  B. Kaduk,  K. Khistyaev,  Jaehoon Kim,  P. Klunzinger,  K. Koh,  
 D. Kosenkov,  L. Koulias,  T. Kowalczyk,  C. M. Krauter,  A. Kunitsa,  
 Ka Un Lao,  A. Laurent,  K. V. Lawler,  Joonho Lee,  D. Lefrancois,  
 S. Lehtola,  D. S. Levine,  Yi-Pei Li,  You-Sheng Lin,  Fenglai Liu,  
 Kuan-Yu Liu,  E. Livshits,  M. Loipersberger,  A. Luenser,  P. Manohar,  
 E. Mansoor,  S. F. Manzer,  Shan-Ping Mao,  Yuezhi Mao,  N. Mardirossian,  
 A. V. Marenich,  T. Markovich,  L. A. Martinez-Martinez,  S. A. Maurer,  
 N. J. Mayhall,  S. C. McKenzie,  J.-M. Mewes,  P. Morgante,  A. F. Morrison,  
 J. W. Mullinax,  K. Nanda,  T. S. Nguyen-Beck,  R. Olivares-Amaya,  
 K. J. Oosterbaan,  J. A. Parkhill,  S. K. Paul,  F. Pavosevic,  Zheng Pei,  
 T. M. Perrine,  F. Plasser,  P. Pokhilko,  S. Prager,  A. Prociuk,  
 E. Ramos,  B. Rana,  D. R. Rehn,  F. Rob,  M. Scheurer,  M. Schneider,  
 N. Sergueev,  S. M. Sharada,  S. Sharma,  D. W. Small,  T. Stauch,  
 C. J. Stein,  T. Stein,  Yu-Chuan Su,  S. P. Veccham,  Zhen Tao,  
 A. J. W. Thom,  A. Tkatchenko,  T. Tsuchimochi,  N. M. Tubman,  L. Vogt,  
 M. L. Vidal,  O. Vydrov,  M. A. Watson,  J. Wenzel,  M. de Wergifosse,  
 T. A. Wesolowski,  A. White,  J. Witte,  A. Yamada,  Jun Yang,  K. Yao,  
 S. Yeganeh,  S. R. Yost,  Zhi-Qiang You,  A. Zech,  Igor Ying Zhang,  
 Xing Zhang,  Yan Zhao,  Ying Zhu,  B. R. Brooks,  G. K. L. Chan,  
 C. J. Cramer,  M. S. Gordon,  W. J. Hehre,  A. Klamt,  M. W. Schmidt,  
 C. D. Sherrill,  D. G. Truhlar,  A. Aspuru-Guzik,  R. Baer,  A. T. Bell,  
 N. A. Besley,  Jeng-Da Chai,  A. E. DePrince, III,  R. A. DiStasio Jr.,  
 A. Dreuw,  B. D. Dunietz,  T. R. Furlani,  Chao-Ping Hsu,  Yousung Jung,  
 Jing Kong,  D. S. Lambrecht,  WanZhen Liang,  C. Ochsenfeld,  
 V. A. Rassolov,  L. V. Slipchenko,  J. E. Subotnik,  T. Van Voorhis,  
 J. M. Herbert,  A. I. Krylov,  P. M. W. Gill,  M. Head-Gordon

 Contributors to earlier versions of Q-Chem not listed above: 
 R. D. Adamson,  B. Austin,  J. Baker,  G. J. O. Beran,  K. Brandhorst,  
 S. T. Brown,  E. F. C. Byrd,  A. K. Chakraborty,  C.-L. Cheng,  
 Siu Hung Chien,  D. M. Chipman,  D. L. Crittenden,  H. Dachsel,  
 R. J. Doerksen,  A. D. Dutoi,  L. Fusti-Molnar,  W. A. Goddard III,  
 A. Golubeva-Zadorozhnaya,  S. R. Gwaltney,  G. Hawkins,  A. Heyden,  
 S. Hirata,  G. Kedziora,  F. J. Keil,  C. Kelley,  Jihan Kim,  R. A. King,  
 R. Z. Khaliullin,  P. P. Korambath,  W. Kurlancheek,  A. M. Lee,  M. S. Lee,  
 S. V. Levchenko,  Ching Yeh Lin,  D. Liotard,  R. C. Lochan,  I. Lotan,  
 P. E. Maslen,  N. Nair,  D. P. O'Neill,  D. Neuhauser,  E. Neuscamman,  
 C. M. Oana,  R. Olson,  B. Peters,  R. Peverati,  P. A. Pieniazek,  
 Y. M. Rhee,  J. Ritchie,  M. A. Rohrdanz,  E. Rosta,  N. J. Russ,  
 H. F. Schaefer III,  N. E. Schultz,  N. Shenvi,  A. C. Simmonett,  A. Sodt,  
 D. Stuck,  K. S. Thanthiriwatte,  V. Vanovschi,  Tao Wang,  A. Warshel,  
 C. F. Williams,  Q. Wu,  X. Xu,  W. Zhang

 Please cite Q-Chem as follows:
 Y. Shao et al., Mol. Phys. 113, 184-215 (2015)
 DOI: 10.1080/00268976.2014.952696

 Q-Chem 5.3.0 for Intel X86 EM64T Linux

 Parts of Q-Chem use Armadillo 9.800.1 (Horizon Scraper).
 http://arma.sourceforge.net/

 Q-Chem begins on Mon Jul 13 15:07:43 2020  

Host: centos77-c5
0

     Scratch files written to /tmp/29025.centos77-h1/qchem70070//
Processing $rem in /opt/qchem-5.3.0-intel2020u1//config/preferences:
Processing $rem in /home/shihchengli/.qchemrc:

Checking the input file for inconsistencies... 	...done.

--------------------------------------------------------------
User input:
--------------------------------------------------------------
$rem
   JOBTYPE  sp
   EXCHANGE   omegaB97X-D
   BASIS   6-311+G(2df,2pd)
   UNRESTRICTED   True
   max_scf_cycles   250
   geom_opt_max_cycles   1500
   basis2 6-31G*
   scf_algorithm rca_diis
   SYM_IGNORE  TRUE
   print_input   true
   geom_opt_dmax   80
   pop_mulliken false
   XC_GRID 000075000302
$end

$molecule
0 3
N       0.9315522490     1.1030341445     2.5217931252
O       0.2936107767     1.6471625622     3.3666710647
O       1.5286802012     1.5177787279     1.5880669931
N       -0.3749065536     -0.7396849389     3.6783650760
O       -1.3530062437     -1.1373025702     3.1779985341
O       0.9190607005     -0.2959988157     2.7674050969
$end
--------------------------------------------------------------
 ----------------------------------------------------------------
             Standard Nuclear Orientation (Angstroms)
    I     Atom           X                Y                Z
 ----------------------------------------------------------------
    1      N       0.9315522490     1.1030341445     2.5217931252
    2      O       0.2936107767     1.6471625622     3.3666710647
    3      O       1.5286802012     1.5177787279     1.5880669931
    4      N      -0.3749065536    -0.7396849389     3.6783650760
    5      O      -1.3530062437    -1.1373025702     3.1779985341
    6      O       0.9190607005    -0.2959988157     2.7674050969
 ----------------------------------------------------------------
 Nuclear Repulsion Energy =         232.37695668 hartrees
 There are       24 alpha and       22 beta electrons
 Requested basis set is 6-311+G(2df,2pd)
 There are 48 shells and 204 basis functions

 Total QAlloc Memory Limit   2000 MB
 Mega-Array Size       188 MB
 MEM_STATIC part       192 MB

                       Distance Matrix (Angstroms)
             N (  1)   O (  2)   O (  3)   N (  4)   O (  5)
   O (  2)  1.190321
   O (  3)  1.183393  2.169232
   N (  4)  2.537737  2.498221  3.617890
   O (  5)  3.266332  3.240400  4.228647  1.168394
   O (  6)  1.420484  2.127483  2.247724  1.643489  2.457370
 
 A cutoff of  1.0D-09 yielded   1026 shell pairs
 There are     19156 function pairs (     25151 Cartesian)
 Smallest overlap matrix eigenvalue = 6.03E-04

 Scale SEOQF with 1.000000e-01/1.000000e-01/1.000000e-01

 Standard Electronic Orientation quadrupole field applied
 Nucleus-field energy     =    -0.0000000358 hartrees
 Requested basis set is 6-31G(d)
 There are 24 shells and 84 basis functions
 A cutoff of  1.0D-09 yielded    268 shell pairs
 There are      3518 function pairs (      4042 Cartesian)
 Smallest overlap matrix eigenvalue = 4.88E-03
 Guess from superposition of atomic densities
 Warning:  Energy on first SCF cycle will be non-variational
 SAD guess density has 46.000000 electrons
 Long-range K will be added via erf
 Coulomb attenuation parameter = 0.2 bohr**(-1)
 An unrestricted hybrid HF-DFT SCF calculation will be
 performed using Relaxed Constraint Minimization + Pulay DIIS
 Exchange:     0.2220 Hartree-Fock + 1.0000 wB97X-D + LR-HF
 Correlation:  1.0000 wB97X-D
 Using Euler-Maclaurin-Lebedev (75,302) quadrature formula
 Dispersion:   Grimme D
 SCF converges when DIIS error is below 1.0E-04
 using 6 threads for integral computing
 -------------------------------------------------------
 OpenMP Integral computing Module                
 Release: version 1.0, May 2013, Q-Chem Inc. Pittsburgh 
 -------------------------------------------------------
 using 6 threads for integral computing
 -------------------------------------------------------
 OpenMP Integral computing Module                
 Release: version 1.0, May 2013, Q-Chem Inc. Pittsburgh 
 -------------------------------------------------------
 ---------------------------------------
  Cycle       Energy         DIIS Error
 ---------------------------------------
    1    -411.0378409803      8.85E-02
    2    -409.6453238676      1.96E-02
    3    -409.7508139809      4.41E-03
    4    -409.9013754295      4.61E-03
    5    -409.9074127798      6.31E-04 Done RCA. Switching to DIIS
    6    -409.9154692581      5.21E-04
    7    -409.9158525572      1.05E-04
    8    -409.9159246191      6.36E-05 Convergence criterion met
 ---------------------------------------
 <S^2> = 2.0164
 SCF time:  CPU 14.53 s  wall 2.43 s
 SCF   energy in the small basis set = -409.91592462
 Total energy in the small basis set = -409.91592462
 ----------------------------------------------------
  Cycle       Energy    
 ----------------------------------------------------
    1     -41.7650218891     -4.18E+01
 Long-range K will be added via erf
 Coulomb attenuation parameter = 0.2 bohr**(-1)
 An unrestricted hybrid HF-DFT SCF calculation will be
 performed using Relaxed Constraint Minimization + Pulay DIIS
 Exchange:     0.2220 Hartree-Fock + 1.0000 wB97X-D + LR-HF
 Correlation:  1.0000 wB97X-D
 Using Euler-Maclaurin-Lebedev (75,302) quadrature formula
 Dispersion:   Grimme D
 SCF converges when DIIS error is below 1.0E-05
 Basis2 calculation detected. Using small basis as guess for larger.
 SCFMinFind is unable to tell whether the solution found is close.
 Resetting ReadMinima to 0 and attempting to follow guess.
 SCFMinFind following SCF Guess.
 using 6 threads for integral computing
 -------------------------------------------------------
 OpenMP Integral computing Module                
 Release: version 1.0, May 2013, Q-Chem Inc. Pittsburgh 
 -------------------------------------------------------
 using 6 threads for integral computing
 -------------------------------------------------------
 OpenMP Integral computing Module                
 Release: version 1.0, May 2013, Q-Chem Inc. Pittsburgh 
 -------------------------------------------------------
 ---------------------------------------
  Cycle       Energy         DIIS Error
 ---------------------------------------
    1    -410.0009064314      8.05E-03
    2    -410.0120889606      4.23E-03
    3    -410.0344193933      1.09E-03
    4    -410.0661900451      1.13E-03
    5    -410.0681448485      1.57E-04 Done RCA. Switching to DIIS
    6    -410.0709868450      1.45E-04
    7    -410.0712076738      5.20E-05
    8    -410.0713171624      3.18E-05
    9    -410.0713647239      1.52E-05
   10    -410.0713856687      7.65E-06 Convergence criterion met
 ---------------------------------------
 <S^2> = 2.0187
 SCF time:  CPU 66.69 s  wall 11.15 s
 SCF   energy in the final basis set = -410.07138567
 Total energy in the final basis set = -410.07138567
 
 --------------------------------------------------------------
 
                    Orbital Energies (a.u.)
 --------------------------------------------------------------
 
 Alpha MOs
 -- Occupied --
-19.4110 -19.3998 -19.3569 -19.3340 -14.7715 -14.6221  -1.4435  -1.3696
 -1.2602  -1.2050  -0.8767  -0.7747  -0.7202  -0.7169  -0.6820  -0.6572
 -0.6360  -0.6318  -0.5043  -0.4925  -0.4617  -0.4575  -0.4398  -0.3393
 -- Virtual --
 -0.0298   0.0109   0.0790   0.1172   0.1246   0.1338   0.1393   0.1718
  0.1778   0.1834   0.2281   0.2396   0.2493   0.2703   0.2797   0.2890
  0.3048   0.3305   0.3403   0.3520   0.3553   0.3594   0.3723   0.3947
  0.3974   0.4344   0.4441   0.4573   0.4928   0.5272   0.7305   0.7967
  0.8027   0.8264   0.8539   0.8771   0.9246   0.9449   0.9689   1.0028
  1.0085   1.0390   1.0587   1.0682   1.0892   1.0961   1.1114   1.1281
  1.1523   1.1600   1.1702   1.1777   1.2191   1.2515   1.2981   1.3123
  1.4186   1.4843   1.5263   1.5448   1.5674   1.5893   1.6127   1.6256
  1.6691   1.6875   1.6906   1.7586   1.8093   1.8873   1.9414   1.9629
  2.0435   2.1217   2.1665   2.2403   2.3482   2.3892   2.4171   2.5004
  2.5304   2.5695   2.6989   2.8148   3.4714   3.5373   3.5627   3.6248
  3.6350   3.6715   3.7096   3.7207   3.7389   3.7697   3.7965   3.9107
  3.9599   3.9903   4.0205   4.0417   4.1022   4.4188   4.4541   4.4798
  4.5079   4.6007   4.6560   4.6593   4.6852   4.7173   4.7482   4.7703
  4.8184   4.9061   4.9867   5.0113   5.0260   5.0377   5.0441   5.0500
  5.0703   5.0760   5.0874   5.1090   5.1186   5.1422   5.1622   5.1676
  5.2259   5.2524   5.3143   5.3665   5.4143   5.4406   5.4805   5.4918
  5.5215   5.6029   5.6358   5.6708   5.8145   5.8803   6.0256   6.1165
  6.2928   6.5377   6.6381   6.6527   6.7089   6.7271   6.7430   6.7706
  6.8132   6.8332   6.8717   6.9035   6.9610   7.0315   7.0900   7.1218
  7.1623   7.1717   7.2160   7.2502   7.3213   7.3693   7.4641   7.5574
  7.6470   7.6966   7.7888   7.8827   7.9126   8.2923  35.9132  36.1232
 49.9849  50.1660  50.2460  50.2570
 
 Beta MOs
 -- Occupied --
-19.3969 -19.3826 -19.3555 -19.3342 -14.7712 -14.6036  -1.4387  -1.3323
 -1.2565  -1.1710  -0.8340  -0.7415  -0.7149  -0.7049  -0.6705  -0.6042
 -0.5858  -0.5604  -0.4795  -0.4690  -0.4608  -0.4362
 -- Virtual --
 -0.1534  -0.0242  -0.0076   0.0555   0.0893   0.1223   0.1348   0.1410
  0.1463   0.1736   0.1817   0.1878   0.2294   0.2426   0.2530   0.2715
  0.2834   0.2910   0.3117   0.3328   0.3418   0.3531   0.3573   0.3615
  0.3754   0.4010   0.4073   0.4379   0.4471   0.4625   0.5101   0.5326
  0.7428   0.8070   0.8152   0.8453   0.8667   0.8819   0.9289   0.9519
  0.9782   1.0136   1.0189   1.0530   1.0711   1.0827   1.0918   1.1106
  1.1260   1.1379   1.1614   1.1674   1.1827   1.1926   1.2283   1.2608
  1.3138   1.3279   1.4275   1.4986   1.5363   1.5521   1.5732   1.6018
  1.6299   1.6395   1.6849   1.7015   1.7106   1.7665   1.8143   1.9016
  1.9490   1.9722   2.0618   2.1417   2.1755   2.2512   2.3591   2.3981
  2.4351   2.5120   2.5339   2.5760   2.7091   2.8186   3.4919   3.5730
  3.5883   3.6416   3.6470   3.6825   3.7145   3.7318   3.7541   3.8008
  3.8637   3.9291   3.9909   4.0056   4.0223   4.0586   4.1155   4.4214
  4.4596   4.4829   4.5103   4.6268   4.6662   4.7014   4.7227   4.7346
  4.7690   4.8057   4.8640   4.9541   5.0060   5.0386   5.0466   5.0520
  5.0571   5.0658   5.0804   5.0942   5.1003   5.1244   5.1352   5.1768
  5.1783   5.1987   5.2397   5.2786   5.3329   5.3790   5.4316   5.4459
  5.4944   5.5130   5.5425   5.6170   5.6579   5.6883   5.8213   5.8869
  6.0419   6.1572   6.3009   6.5395   6.6601   6.6965   6.7373   6.7690
  6.7924   6.8036   6.8157   6.8395   6.8764   6.9069   6.9928   7.0471
  7.1083   7.1448   7.1692   7.2004   7.2448   7.2589   7.3357   7.3878
  7.4899   7.5623   7.6780   7.7251   7.7957   7.8887   7.9302   8.2941
 35.9355  36.1235  50.0000  50.1820  50.2471  50.2574
 --------------------------------------------------------------
 
 -----------------------------------------------------------------
                    Cartesian Multipole Moments
 -----------------------------------------------------------------
    Charge (ESU x 10^10)
                -0.0000
    Dipole Moment (Debye)
         X      -0.1307      Y      -0.7793      Z       0.2375
       Tot       0.8251
    Quadrupole Moments (Debye-Ang)
        XX     -32.2189     XY      -0.3030     YY     -34.3163
        XZ       0.8214     YZ      -2.5097     ZZ     -30.8515
    Octopole Moments (Debye-Ang^2)
       XXX     -30.5751    XXY     -10.2939    XYY     -11.5103
       YYY     -39.7088    XXZ     -88.9428    XYZ       1.5746
       YYZ     -97.4156    XZZ      -7.7403    YZZ     -21.5310
       ZZZ    -267.4703
    Hexadecapole Moments (Debye-Ang^3)
      XXXX    -216.4281   XXXY     -84.3697   XXYY     -84.9823
      XYYY     -88.2011   YYYY    -296.1752   XXXZ     -37.3522
      XXYZ     -12.9603   XYYZ     -14.6992   YYYZ     -75.5110
      XXZZ    -302.3264   XYZZ     -18.6846   YYZZ    -344.4414
      XZZZ     -41.7234   YZZZ    -102.5922   ZZZZ   -1635.9788
 -----------------------------------------------------------------
Archival summary:
1\1\centos77-c5\SP\ProcedureUnspecified\BasisUnspecified\42(3)\shihchen\MonJul1315:07:592020MonJul1315:07:592020\0\\#,ProcedureUnspecified,BasisUnspecified,\\0,3\N\O,1,1.18339\O,1,1.19032,2,132.087\O,1,1.42048,2,119.081,3,-179.712,0\N,4,1.64349,1,111.633,2,-157.411,0\O,5,1.16839,4,120.904,1,95.6949,0\\\@

 Total job time:  15.99s(wall), 85.43s(cpu) 
 Mon Jul 13 15:07:59 2020

        *************************************************************
        *                                                           *
        *  Thank you very much for using Q-Chem.  Have a nice day.  *
        *                                                           *
        *************************************************************


