                  Welcome to Q-Chem
     A Quantum Leap Into The Future Of Chemistry


 Q-Chem 5.3 (devel), Q-Chem, Inc., Pleasanton, CA (2020)

 Yihan Shao,  Zhengting Gan,  E. Epifanovsky,  A. T. B. Gilbert,  M. Wormit,  
 J. Kussmann,  A. W. Lange,  A. Behn,  Jia Deng,  Xintian Feng,  D. Ghosh,  
 M. Goldey,  P. R. Horn,  L. D. Jacobson,  I. Kaliman,  T. Kus,  A. Landau,  
 Jie Liu,  E. I. Proynov,  R. M. Richard,  R. P. Steele,  E. J. Sundstrom,  
 H. L. Woodcock III,  P. M. Zimmerman,  D. Zuev,  B. Alam,  B. Albrecht,  
 E. Alguire,  S. A. Baeppler,  D. Barton,  Z. Benda,  Y. A. Bernard,  
 E. J. Berquist,  K. B. Bravaya,  H. Burton,  K. Carter-Fenk,  D. Casanova,  
 Chun-Min Chang,  Yunqing Chen,  A. Chien,  K. D. Closser,  M. P. Coons,  
 S. Coriani,  S. Dasgupta,  A. L. Dempwolff,  M. Diedenhofen,  Hainam Do,  
 R. G. Edgar,  Po-Tung Fang,  S. Faraji,  S. Fatehi,  Qingguo Feng,  
 J. Fosso-Tande,  J. Gayvert,  Qinghui Ge,  A. Ghysels,  G. Gidofalvi,  
 J. Gomes,  J. Gonthier,  A. Gunina,  D. Hait,  M. W. D. Hanson-Heine,  
 P. H. P. Harbach,  A. W. Hauser,  M. F. Herbst,  J. E. Herr,  
 E. G. Hohenstein,  Z. C. Holden,  Kerwin Hui,  B. C. Huynh,  T.-C. Jagau,  
 Hyunjun Ji,  B. Kaduk,  K. Khistyaev,  Jaehoon Kim,  P. Klunzinger,  K. Koh,  
 D. Kosenkov,  L. Koulias,  T. Kowalczyk,  C. M. Krauter,  A. Kunitsa,  
 Ka Un Lao,  A. Laurent,  K. V. Lawler,  Joonho Lee,  D. Lefrancois,  
 S. Lehtola,  D. S. Levine,  Yi-Pei Li,  You-Sheng Lin,  Fenglai Liu,  
 Kuan-Yu Liu,  E. Livshits,  M. Loipersberger,  A. Luenser,  P. Manohar,  
 E. Mansoor,  S. F. Manzer,  Shan-Ping Mao,  Yuezhi Mao,  N. Mardirossian,  
 A. V. Marenich,  T. Markovich,  L. A. Martinez-Martinez,  S. A. Maurer,  
 N. J. Mayhall,  S. C. McKenzie,  J.-M. Mewes,  P. Morgante,  A. F. Morrison,  
 J. W. Mullinax,  K. Nanda,  T. S. Nguyen-Beck,  R. Olivares-Amaya,  
 K. J. Oosterbaan,  J. A. Parkhill,  S. K. Paul,  F. Pavosevic,  Zheng Pei,  
 T. M. Perrine,  F. Plasser,  P. Pokhilko,  S. Prager,  A. Prociuk,  
 E. Ramos,  B. Rana,  D. R. Rehn,  F. Rob,  M. Scheurer,  M. Schneider,  
 N. Sergueev,  S. M. Sharada,  S. Sharma,  D. W. Small,  T. Stauch,  
 C. J. Stein,  T. Stein,  Yu-Chuan Su,  S. P. Veccham,  Zhen Tao,  
 A. J. W. Thom,  A. Tkatchenko,  T. Tsuchimochi,  N. M. Tubman,  L. Vogt,  
 M. L. Vidal,  O. Vydrov,  M. A. Watson,  J. Wenzel,  M. de Wergifosse,  
 T. A. Wesolowski,  A. White,  J. Witte,  A. Yamada,  Jun Yang,  K. Yao,  
 S. Yeganeh,  S. R. Yost,  Zhi-Qiang You,  A. Zech,  Igor Ying Zhang,  
 Xing Zhang,  Yan Zhao,  Ying Zhu,  B. R. Brooks,  G. K. L. Chan,  
 C. J. Cramer,  M. S. Gordon,  W. J. Hehre,  A. Klamt,  M. W. Schmidt,  
 C. D. Sherrill,  D. G. Truhlar,  A. Aspuru-Guzik,  R. Baer,  A. T. Bell,  
 N. A. Besley,  Jeng-Da Chai,  A. E. DePrince, III,  R. A. DiStasio Jr.,  
 A. Dreuw,  B. D. Dunietz,  T. R. Furlani,  Chao-Ping Hsu,  Yousung Jung,  
 Jing Kong,  D. S. Lambrecht,  WanZhen Liang,  C. Ochsenfeld,  
 V. A. Rassolov,  L. V. Slipchenko,  J. E. Subotnik,  T. Van Voorhis,  
 J. M. Herbert,  A. I. Krylov,  P. M. W. Gill,  M. Head-Gordon

 Contributors to earlier versions of Q-Chem not listed above: 
 R. D. Adamson,  B. Austin,  J. Baker,  G. J. O. Beran,  K. Brandhorst,  
 S. T. Brown,  E. F. C. Byrd,  A. K. Chakraborty,  C.-L. Cheng,  
 Siu Hung Chien,  D. M. Chipman,  D. L. Crittenden,  H. Dachsel,  
 R. J. Doerksen,  A. D. Dutoi,  L. Fusti-Molnar,  W. A. Goddard III,  
 A. Golubeva-Zadorozhnaya,  S. R. Gwaltney,  G. Hawkins,  A. Heyden,  
 S. Hirata,  G. Kedziora,  F. J. Keil,  C. Kelley,  Jihan Kim,  R. A. King,  
 R. Z. Khaliullin,  P. P. Korambath,  W. Kurlancheek,  A. M. Lee,  M. S. Lee,  
 S. V. Levchenko,  Ching Yeh Lin,  D. Liotard,  R. C. Lochan,  I. Lotan,  
 P. E. Maslen,  N. Nair,  D. P. O'Neill,  D. Neuhauser,  E. Neuscamman,  
 C. M. Oana,  R. Olson,  B. Peters,  R. Peverati,  P. A. Pieniazek,  
 Y. M. Rhee,  J. Ritchie,  M. A. Rohrdanz,  E. Rosta,  N. J. Russ,  
 H. F. Schaefer III,  N. E. Schultz,  N. Shenvi,  A. C. Simmonett,  A. Sodt,  
 D. Stuck,  K. S. Thanthiriwatte,  V. Vanovschi,  Tao Wang,  A. Warshel,  
 C. F. Williams,  Q. Wu,  X. Xu,  W. Zhang

 Please cite Q-Chem as follows:
 Y. Shao et al., Mol. Phys. 113, 184-215 (2015)
 DOI: 10.1080/00268976.2014.952696

 Q-Chem 5.3.0 for Intel X86 EM64T Linux

 Parts of Q-Chem use Armadillo 9.800.1 (Horizon Scraper).
 http://arma.sourceforge.net/

 Q-Chem begins on Mon Jul 13 15:12:11 2020  

Host: centos77-c5
0

     Scratch files written to /tmp/29025.centos77-h1/qchem22390//
Processing $rem in /opt/qchem-5.3.0-intel2020u1//config/preferences:
Processing $rem in /home/shihchengli/.qchemrc:

Checking the input file for inconsistencies... 	...done.

--------------------------------------------------------------
User input:
--------------------------------------------------------------
$rem
   JOBTYPE  sp
   EXCHANGE   omegaB97X-D
   BASIS   6-311+G(2df,2pd)
   UNRESTRICTED   True
   max_scf_cycles   250
   geom_opt_max_cycles   1500
   basis2 6-31G*
   scf_algorithm rca_diis
   SYM_IGNORE  TRUE
   print_input   true
   geom_opt_dmax   80
   pop_mulliken false
   XC_GRID 000075000302
$end

$molecule
0 3
N       0.8815302788     1.1793933360     2.7409429831
O       1.7302927861     1.8560034689     3.2294762203
O       0.3698000643     1.1962547896     1.6740469106
N       -0.8242820237     -0.6535440547     3.1540432267
O       -0.6888583308     -1.6819452759     2.6162730040
O       0.4765083554     0.1988268460     3.6855175453
$end
--------------------------------------------------------------
 ----------------------------------------------------------------
             Standard Nuclear Orientation (Angstroms)
    I     Atom           X                Y                Z
 ----------------------------------------------------------------
    1      N       0.8815302788     1.1793933360     2.7409429831
    2      O       1.7302927861     1.8560034689     3.2294762203
    3      O       0.3698000643     1.1962547896     1.6740469106
    4      N      -0.8242820237    -0.6535440547     3.1540432267
    5      O      -0.6888583308    -1.6819452759     2.6162730040
    6      O       0.4765083554     0.1988268460     3.6855175453
 ----------------------------------------------------------------
 Nuclear Repulsion Energy =         231.68588080 hartrees
 There are       24 alpha and       22 beta electrons
 Requested basis set is 6-311+G(2df,2pd)
 There are 48 shells and 204 basis functions

 Total QAlloc Memory Limit   2000 MB
 Mega-Array Size       188 MB
 MEM_STATIC part       192 MB

                       Distance Matrix (Angstroms)
             N (  1)   O (  2)   O (  3)   N (  4)   O (  5)
   O (  2)  1.190321
   O (  3)  1.183393  2.169232
   N (  4)  2.537737  3.581811  2.652919
   O (  5)  3.266332  4.329595  3.208206  1.168394
   O (  6)  1.420484  2.127483  2.247724  1.643489  2.457370
 
 A cutoff of  1.0D-09 yielded   1025 shell pairs
 There are     19149 function pairs (     25141 Cartesian)
 Smallest overlap matrix eigenvalue = 6.75E-04

 Scale SEOQF with 1.000000e-01/1.000000e-01/1.000000e-01

 Standard Electronic Orientation quadrupole field applied
 Nucleus-field energy     =    -0.0000000351 hartrees
 Requested basis set is 6-31G(d)
 There are 24 shells and 84 basis functions
 A cutoff of  1.0D-09 yielded    268 shell pairs
 There are      3534 function pairs (      4062 Cartesian)
 Smallest overlap matrix eigenvalue = 4.83E-03
 Guess from superposition of atomic densities
 Warning:  Energy on first SCF cycle will be non-variational
 SAD guess density has 46.000000 electrons
 Long-range K will be added via erf
 Coulomb attenuation parameter = 0.2 bohr**(-1)
 An unrestricted hybrid HF-DFT SCF calculation will be
 performed using Relaxed Constraint Minimization + Pulay DIIS
 Exchange:     0.2220 Hartree-Fock + 1.0000 wB97X-D + LR-HF
 Correlation:  1.0000 wB97X-D
 Using Euler-Maclaurin-Lebedev (75,302) quadrature formula
 Dispersion:   Grimme D
 SCF converges when DIIS error is below 1.0E-04
 using 6 threads for integral computing
 -------------------------------------------------------
 OpenMP Integral computing Module                
 Release: version 1.0, May 2013, Q-Chem Inc. Pittsburgh 
 -------------------------------------------------------
 using 6 threads for integral computing
 -------------------------------------------------------
 OpenMP Integral computing Module                
 Release: version 1.0, May 2013, Q-Chem Inc. Pittsburgh 
 -------------------------------------------------------
 ---------------------------------------
  Cycle       Energy         DIIS Error
 ---------------------------------------
    1    -411.0331185512      8.84E-02
    2    -409.6590214307      1.95E-02
    3    -409.7628893294      4.44E-03
    4    -409.9110872029      4.68E-03
    5    -409.9172759415      6.41E-04 Done RCA. Switching to DIIS
    6    -409.9255051532      5.53E-04
    7    -409.9259067766      9.15E-05 Convergence criterion met
 ---------------------------------------
 <S^2> = 2.0152
 SCF time:  CPU 13.20 s  wall 2.21 s
 SCF   energy in the small basis set = -409.92590678
 Total energy in the small basis set = -409.92590678
 ----------------------------------------------------
  Cycle       Energy    
 ----------------------------------------------------
    1     -41.7568798132     -4.18E+01
 Long-range K will be added via erf
 Coulomb attenuation parameter = 0.2 bohr**(-1)
 An unrestricted hybrid HF-DFT SCF calculation will be
 performed using Relaxed Constraint Minimization + Pulay DIIS
 Exchange:     0.2220 Hartree-Fock + 1.0000 wB97X-D + LR-HF
 Correlation:  1.0000 wB97X-D
 Using Euler-Maclaurin-Lebedev (75,302) quadrature formula
 Dispersion:   Grimme D
 SCF converges when DIIS error is below 1.0E-05
 Basis2 calculation detected. Using small basis as guess for larger.
 SCFMinFind is unable to tell whether the solution found is close.
 Resetting ReadMinima to 0 and attempting to follow guess.
 SCFMinFind following SCF Guess.
 using 6 threads for integral computing
 -------------------------------------------------------
 OpenMP Integral computing Module                
 Release: version 1.0, May 2013, Q-Chem Inc. Pittsburgh 
 -------------------------------------------------------
 using 6 threads for integral computing
 -------------------------------------------------------
 OpenMP Integral computing Module                
 Release: version 1.0, May 2013, Q-Chem Inc. Pittsburgh 
 -------------------------------------------------------
 ---------------------------------------
  Cycle       Energy         DIIS Error
 ---------------------------------------
    1    -410.0136339835      8.04E-03
    2    -410.0204698731      4.27E-03
    3    -410.0428808794      1.20E-03
    4    -410.0748101826      1.20E-03
    5    -410.0772608392      1.57E-04 Done RCA. Switching to DIIS
    6    -410.0809242860      1.56E-04
    7    -410.0810928479      5.45E-05
    8    -410.0811801294      2.21E-05
    9    -410.0812089535      1.16E-05
   10    -410.0812180251      5.68E-06 Convergence criterion met
 ---------------------------------------
 <S^2> = 2.0183
 SCF time:  CPU 64.87 s  wall 10.84 s
 SCF   energy in the final basis set = -410.08121803
 Total energy in the final basis set = -410.08121803
 
 --------------------------------------------------------------
 
                    Orbital Energies (a.u.)
 --------------------------------------------------------------
 
 Alpha MOs
 -- Occupied --
-19.4117 -19.4009 -19.3500 -19.3481 -14.7733 -14.6206  -1.4446  -1.3699
 -1.2597  -1.2077  -0.8745  -0.7773  -0.7202  -0.7181  -0.6858  -0.6564
 -0.6341  -0.6322  -0.5046  -0.4941  -0.4651  -0.4610  -0.4381  -0.3410
 -- Virtual --
 -0.0228   0.0090   0.0761   0.1151   0.1249   0.1361   0.1375   0.1694
  0.1785   0.1859   0.2275   0.2410   0.2522   0.2675   0.2703   0.2901
  0.3051   0.3259   0.3435   0.3445   0.3474   0.3598   0.3698   0.3869
  0.4017   0.4313   0.4446   0.4591   0.4928   0.5256   0.7488   0.7538
  0.8046   0.8287   0.8621   0.8714   0.9393   0.9473   0.9782   1.0127
  1.0224   1.0504   1.0588   1.0718   1.0760   1.0847   1.1178   1.1325
  1.1411   1.1560   1.1629   1.1740   1.2188   1.2381   1.2569   1.3207
  1.4445   1.4630   1.5230   1.5486   1.5672   1.5816   1.5997   1.6143
  1.6532   1.6827   1.7045   1.7885   1.8207   1.9048   1.9266   1.9292
  1.9827   2.1247   2.2035   2.2558   2.3326   2.3564   2.4470   2.5034
  2.5366   2.5616   2.6885   2.8094   3.5057   3.5368   3.5736   3.6149
  3.6379   3.6615   3.6904   3.7159   3.7225   3.7713   3.7955   3.8908
  3.9518   3.9998   4.0182   4.0765   4.0836   4.4200   4.4509   4.4785
  4.5017   4.5949   4.6435   4.6587   4.6883   4.7141   4.7363   4.7767
  4.8241   4.9062   4.9969   4.9988   5.0178   5.0265   5.0413   5.0469
  5.0615   5.0839   5.0972   5.1023   5.1244   5.1371   5.1718   5.1794
  5.2054   5.2733   5.3182   5.3848   5.3995   5.4216   5.4448   5.5030
  5.5518   5.5554   5.6285   5.6730   5.8203   5.8687   5.9882   6.1102
  6.3298   6.5339   6.6527   6.6676   6.6912   6.7270   6.7382   6.7659
  6.7919   6.8245   6.8748   6.9070   6.9526   6.9949   7.0960   7.1022
  7.1603   7.1715   7.1960   7.2717   7.3104   7.3519   7.4629   7.5660
  7.6663   7.6943   7.8158   7.8509   7.9061   8.2785  35.9133  36.1227
 49.9927  50.1647  50.2351  50.2629
 
 Beta MOs
 -- Occupied --
-19.3986 -19.3828 -19.3485 -19.3477 -14.7731 -14.6026  -1.4400  -1.3316
 -1.2572  -1.1744  -0.8304  -0.7450  -0.7158  -0.7044  -0.6734  -0.6045
 -0.5830  -0.5587  -0.4807  -0.4707  -0.4626  -0.4461
 -- Virtual --
 -0.1517  -0.0205  -0.0089   0.0610   0.0856   0.1209   0.1372   0.1404
  0.1421   0.1723   0.1818   0.1902   0.2288   0.2454   0.2550   0.2702
  0.2728   0.2920   0.3124   0.3268   0.3452   0.3465   0.3487   0.3623
  0.3715   0.3948   0.4095   0.4362   0.4477   0.4649   0.5108   0.5307
  0.7585   0.7648   0.8176   0.8464   0.8729   0.8805   0.9427   0.9545
  0.9897   1.0235   1.0275   1.0660   1.0685   1.0825   1.0867   1.1049
  1.1231   1.1431   1.1504   1.1612   1.1796   1.1870   1.2305   1.2473
  1.2731   1.3362   1.4583   1.4756   1.5278   1.5532   1.5717   1.5931
  1.6163   1.6353   1.6715   1.7083   1.7139   1.7918   1.8283   1.9135
  1.9309   1.9484   1.9987   2.1388   2.2152   2.2693   2.3463   2.3666
  2.4619   2.5175   2.5389   2.5682   2.6966   2.8133   3.5324   3.5714
  3.5899   3.6306   3.6537   3.6635   3.7070   3.7285   3.7341   3.8004
  3.8608   3.9113   3.9818   4.0132   4.0224   4.0900   4.0997   4.4226
  4.4554   4.4840   4.5044   4.6232   4.6515   4.6932   4.7197   4.7313
  4.7656   4.8154   4.8656   4.9568   5.0139   5.0168   5.0431   5.0469
  5.0553   5.0620   5.0777   5.0914   5.1115   5.1252   5.1396   5.1608
  5.2007   5.2063   5.2180   5.3006   5.3352   5.4017   5.4070   5.4352
  5.4571   5.5291   5.5601   5.5783   5.6518   5.6888   5.8250   5.8758
  6.0043   6.1480   6.3417   6.5362   6.6872   6.6979   6.7163   6.7699
  6.7916   6.7990   6.8035   6.8320   6.8772   6.9087   6.9851   7.0074
  7.1114   7.1243   7.1666   7.2051   7.2239   7.2789   7.3288   7.3656
  7.4890   7.5741   7.6944   7.7231   7.8253   7.8695   7.9129   8.2809
 35.9349  36.1230  50.0064  50.1816  50.2372  50.2629
 --------------------------------------------------------------
 
 -----------------------------------------------------------------
                    Cartesian Multipole Moments
 -----------------------------------------------------------------
    Charge (ESU x 10^10)
                -0.0000
    Dipole Moment (Debye)
         X      -0.5621      Y      -0.5933      Z       0.2441
       Tot       0.8530
    Quadrupole Moments (Debye-Ang)
        XX     -32.0209     XY      -1.8125     YY     -33.4218
        XZ      -2.6389     YZ      -1.4593     ZZ     -32.2664
    Octopole Moments (Debye-Ang^2)
       XXX     -34.2061    XXY     -15.6297    XYY     -14.4725
       YYY     -35.1042    XXZ     -93.1857    XYZ      -5.8089
       YYZ     -94.0655    XZZ     -21.6348    YZZ     -17.0971
       ZZZ    -281.4661
    Hexadecapole Moments (Debye-Ang^3)
      XXXX    -193.5307   XXXY    -107.6189   XXYY     -93.8786
      XYYY    -112.4919   YYYY    -332.4209   XXXZ    -106.9892
      XXYZ     -43.8547   XYYZ     -44.8160   YYYZ     -91.5433
      XXZZ    -320.4309   XYZZ     -53.8867   YYZZ    -338.2776
      XZZZ    -140.0838   YZZZ    -115.5005   ZZZZ   -1716.5831
 -----------------------------------------------------------------
Archival summary:
1\1\centos77-c5\SP\ProcedureUnspecified\BasisUnspecified\42(3)\shihchen\MonJul1315:12:262020MonJul1315:12:262020\0\\#,ProcedureUnspecified,BasisUnspecified,\\0,3\N\O,1,1.18339\O,1,1.19032,2,132.087\O,1,1.42048,2,119.081,3,-179.712,0\N,4,1.64349,1,111.633,2,-7.41055,0\O,5,1.16839,4,120.904,1,95.6949,0\\\@

 Total job time:  15.47s(wall), 82.59s(cpu) 
 Mon Jul 13 15:12:26 2020

        *************************************************************
        *                                                           *
        *  Thank you very much for using Q-Chem.  Have a nice day.  *
        *                                                           *
        *************************************************************


