                  Welcome to Q-Chem
     A Quantum Leap Into The Future Of Chemistry


 Q-Chem 5.3 (devel), Q-Chem, Inc., Pleasanton, CA (2020)

 Yihan Shao,  Zhengting Gan,  E. Epifanovsky,  A. T. B. Gilbert,  M. Wormit,  
 J. Kussmann,  A. W. Lange,  A. Behn,  Jia Deng,  Xintian Feng,  D. Ghosh,  
 M. Goldey,  P. R. Horn,  L. D. Jacobson,  I. Kaliman,  T. Kus,  A. Landau,  
 Jie Liu,  E. I. Proynov,  R. M. Richard,  R. P. Steele,  E. J. Sundstrom,  
 H. L. Woodcock III,  P. M. Zimmerman,  D. Zuev,  B. Alam,  B. Albrecht,  
 E. Alguire,  S. A. Baeppler,  D. Barton,  Z. Benda,  Y. A. Bernard,  
 E. J. Berquist,  K. B. Bravaya,  H. Burton,  K. Carter-Fenk,  D. Casanova,  
 Chun-Min Chang,  Yunqing Chen,  A. Chien,  K. D. Closser,  M. P. Coons,  
 S. Coriani,  S. Dasgupta,  A. L. Dempwolff,  M. Diedenhofen,  Hainam Do,  
 R. G. Edgar,  Po-Tung Fang,  S. Faraji,  S. Fatehi,  Qingguo Feng,  
 J. Fosso-Tande,  J. Gayvert,  Qinghui Ge,  A. Ghysels,  G. Gidofalvi,  
 J. Gomes,  J. Gonthier,  A. Gunina,  D. Hait,  M. W. D. Hanson-Heine,  
 P. H. P. Harbach,  A. W. Hauser,  M. F. Herbst,  J. E. Herr,  
 E. G. Hohenstein,  Z. C. Holden,  Kerwin Hui,  B. C. Huynh,  T.-C. Jagau,  
 Hyunjun Ji,  B. Kaduk,  K. Khistyaev,  Jaehoon Kim,  P. Klunzinger,  K. Koh,  
 D. Kosenkov,  L. Koulias,  T. Kowalczyk,  C. M. Krauter,  A. Kunitsa,  
 Ka Un Lao,  A. Laurent,  K. V. Lawler,  Joonho Lee,  D. Lefrancois,  
 S. Lehtola,  D. S. Levine,  Yi-Pei Li,  You-Sheng Lin,  Fenglai Liu,  
 Kuan-Yu Liu,  E. Livshits,  M. Loipersberger,  A. Luenser,  P. Manohar,  
 E. Mansoor,  S. F. Manzer,  Shan-Ping Mao,  Yuezhi Mao,  N. Mardirossian,  
 A. V. Marenich,  T. Markovich,  L. A. Martinez-Martinez,  S. A. Maurer,  
 N. J. Mayhall,  S. C. McKenzie,  J.-M. Mewes,  P. Morgante,  A. F. Morrison,  
 J. W. Mullinax,  K. Nanda,  T. S. Nguyen-Beck,  R. Olivares-Amaya,  
 K. J. Oosterbaan,  J. A. Parkhill,  S. K. Paul,  F. Pavosevic,  Zheng Pei,  
 T. M. Perrine,  F. Plasser,  P. Pokhilko,  S. Prager,  A. Prociuk,  
 E. Ramos,  B. Rana,  D. R. Rehn,  F. Rob,  M. Scheurer,  M. Schneider,  
 N. Sergueev,  S. M. Sharada,  S. Sharma,  D. W. Small,  T. Stauch,  
 C. J. Stein,  T. Stein,  Yu-Chuan Su,  S. P. Veccham,  Zhen Tao,  
 A. J. W. Thom,  A. Tkatchenko,  T. Tsuchimochi,  N. M. Tubman,  L. Vogt,  
 M. L. Vidal,  O. Vydrov,  M. A. Watson,  J. Wenzel,  M. de Wergifosse,  
 T. A. Wesolowski,  A. White,  J. Witte,  A. Yamada,  Jun Yang,  K. Yao,  
 S. Yeganeh,  S. R. Yost,  Zhi-Qiang You,  A. Zech,  Igor Ying Zhang,  
 Xing Zhang,  Yan Zhao,  Ying Zhu,  B. R. Brooks,  G. K. L. Chan,  
 C. J. Cramer,  M. S. Gordon,  W. J. Hehre,  A. Klamt,  M. W. Schmidt,  
 C. D. Sherrill,  D. G. Truhlar,  A. Aspuru-Guzik,  R. Baer,  A. T. Bell,  
 N. A. Besley,  Jeng-Da Chai,  A. E. DePrince, III,  R. A. DiStasio Jr.,  
 A. Dreuw,  B. D. Dunietz,  T. R. Furlani,  Chao-Ping Hsu,  Yousung Jung,  
 Jing Kong,  D. S. Lambrecht,  WanZhen Liang,  C. Ochsenfeld,  
 V. A. Rassolov,  L. V. Slipchenko,  J. E. Subotnik,  T. Van Voorhis,  
 J. M. Herbert,  A. I. Krylov,  P. M. W. Gill,  M. Head-Gordon

 Contributors to earlier versions of Q-Chem not listed above: 
 R. D. Adamson,  B. Austin,  J. Baker,  G. J. O. Beran,  K. Brandhorst,  
 S. T. Brown,  E. F. C. Byrd,  A. K. Chakraborty,  C.-L. Cheng,  
 Siu Hung Chien,  D. M. Chipman,  D. L. Crittenden,  H. Dachsel,  
 R. J. Doerksen,  A. D. Dutoi,  L. Fusti-Molnar,  W. A. Goddard III,  
 A. Golubeva-Zadorozhnaya,  S. R. Gwaltney,  G. Hawkins,  A. Heyden,  
 S. Hirata,  G. Kedziora,  F. J. Keil,  C. Kelley,  Jihan Kim,  R. A. King,  
 R. Z. Khaliullin,  P. P. Korambath,  W. Kurlancheek,  A. M. Lee,  M. S. Lee,  
 S. V. Levchenko,  Ching Yeh Lin,  D. Liotard,  R. C. Lochan,  I. Lotan,  
 P. E. Maslen,  N. Nair,  D. P. O'Neill,  D. Neuhauser,  E. Neuscamman,  
 C. M. Oana,  R. Olson,  B. Peters,  R. Peverati,  P. A. Pieniazek,  
 Y. M. Rhee,  J. Ritchie,  M. A. Rohrdanz,  E. Rosta,  N. J. Russ,  
 H. F. Schaefer III,  N. E. Schultz,  N. Shenvi,  A. C. Simmonett,  A. Sodt,  
 D. Stuck,  K. S. Thanthiriwatte,  V. Vanovschi,  Tao Wang,  A. Warshel,  
 C. F. Williams,  Q. Wu,  X. Xu,  W. Zhang

 Please cite Q-Chem as follows:
 Y. Shao et al., Mol. Phys. 113, 184-215 (2015)
 DOI: 10.1080/00268976.2014.952696

 Q-Chem 5.3.0 for Intel X86 EM64T Linux

 Parts of Q-Chem use Armadillo 9.800.1 (Horizon Scraper).
 http://arma.sourceforge.net/

 Q-Chem begins on Mon Jul 13 15:43:48 2020  

Host: centos77-c5
0

     Scratch files written to /tmp/29025.centos77-h1/qchem68221//
Processing $rem in /opt/qchem-5.3.0-intel2020u1//config/preferences:
Processing $rem in /home/shihchengli/.qchemrc:

Checking the input file for inconsistencies... 	...done.

--------------------------------------------------------------
User input:
--------------------------------------------------------------
$rem
   JOBTYPE  sp
   EXCHANGE   omegaB97X-D
   BASIS   6-311+G(2df,2pd)
   UNRESTRICTED   True
   max_scf_cycles   250
   geom_opt_max_cycles   1500
   basis2 6-31G*
   scf_algorithm rca_diis
   SYM_IGNORE  TRUE
   print_input   true
   geom_opt_dmax   80
   pop_mulliken false
   XC_GRID 000075000302
$end

$molecule
0 3
N       0.7325925859     1.2602678344     2.4861029933
O       0.3426571662     2.1814070657     1.8371568655
O       1.6139649530     0.9446180612     3.2199561996
N       0.0391236540     -1.1618842722     3.1390132369
O       -0.4745646405     -1.3176618444     4.1780252604
O       -0.3087825885     0.1882422652     2.2400453343
$end
--------------------------------------------------------------
 ----------------------------------------------------------------
             Standard Nuclear Orientation (Angstroms)
    I     Atom           X                Y                Z
 ----------------------------------------------------------------
    1      N       0.7325925859     1.2602678344     2.4861029933
    2      O       0.3426571662     2.1814070657     1.8371568655
    3      O       1.6139649530     0.9446180612     3.2199561996
    4      N       0.0391236540    -1.1618842722     3.1390132369
    5      O      -0.4745646405    -1.3176618444     4.1780252604
    6      O      -0.3087825885     0.1882422652     2.2400453343
 ----------------------------------------------------------------
 Nuclear Repulsion Energy =         228.83380814 hartrees
 There are       24 alpha and       22 beta electrons
 Requested basis set is 6-311+G(2df,2pd)
 There are 48 shells and 204 basis functions

 Total QAlloc Memory Limit   2000 MB
 Mega-Array Size       188 MB
 MEM_STATIC part       192 MB

                       Distance Matrix (Angstroms)
             N (  1)   O (  2)   O (  3)   N (  4)   O (  5)
   O (  2)  1.192341
   O (  3)  1.189535  2.249001
   N (  4)  2.602693  3.600633  2.631355
   O (  5)  3.311427  4.288473  3.224556  1.169482
   O (  6)  1.514677  2.135275  2.286764  1.658922  2.459877
 
 A cutoff of  1.0D-09 yielded   1019 shell pairs
 There are     18995 function pairs (     24909 Cartesian)
 Smallest overlap matrix eigenvalue = 6.56E-04

 Scale SEOQF with 1.000000e-01/1.000000e-01/1.000000e-01

 Standard Electronic Orientation quadrupole field applied
 Nucleus-field energy     =    -0.0000000364 hartrees
 Requested basis set is 6-31G(d)
 There are 24 shells and 84 basis functions
 A cutoff of  1.0D-09 yielded    268 shell pairs
 There are      3537 function pairs (      4065 Cartesian)
 Smallest overlap matrix eigenvalue = 4.32E-03
 Guess from superposition of atomic densities
 Warning:  Energy on first SCF cycle will be non-variational
 SAD guess density has 46.000000 electrons
 Long-range K will be added via erf
 Coulomb attenuation parameter = 0.2 bohr**(-1)
 An unrestricted hybrid HF-DFT SCF calculation will be
 performed using Relaxed Constraint Minimization + Pulay DIIS
 Exchange:     0.2220 Hartree-Fock + 1.0000 wB97X-D + LR-HF
 Correlation:  1.0000 wB97X-D
 Using Euler-Maclaurin-Lebedev (75,302) quadrature formula
 Dispersion:   Grimme D
 SCF converges when DIIS error is below 1.0E-04
 using 6 threads for integral computing
 -------------------------------------------------------
 OpenMP Integral computing Module                
 Release: version 1.0, May 2013, Q-Chem Inc. Pittsburgh 
 -------------------------------------------------------
 using 6 threads for integral computing
 -------------------------------------------------------
 OpenMP Integral computing Module                
 Release: version 1.0, May 2013, Q-Chem Inc. Pittsburgh 
 -------------------------------------------------------
 ---------------------------------------
  Cycle       Energy         DIIS Error
 ---------------------------------------
    1    -410.8720969346      8.56E-02
    2    -409.6601122529      1.91E-02
    3    -409.7634771096      3.94E-03
    4    -409.9080081883      4.05E-03
    5    -409.9127751989      6.44E-04 Done RCA. Switching to DIIS
    6    -409.9195341262      5.56E-04
    7    -409.9199763929      1.26E-04
    8    -409.9200710787      9.29E-05 Convergence criterion met
 ---------------------------------------
 <S^2> = 2.0167
 SCF time:  CPU 14.26 s  wall 2.39 s
 SCF   energy in the small basis set = -409.92007108
 Total energy in the small basis set = -409.92007108
 ----------------------------------------------------
  Cycle       Energy    
 ----------------------------------------------------
    1     -41.7009790258     -4.17E+01
 Long-range K will be added via erf
 Coulomb attenuation parameter = 0.2 bohr**(-1)
 An unrestricted hybrid HF-DFT SCF calculation will be
 performed using Relaxed Constraint Minimization + Pulay DIIS
 Exchange:     0.2220 Hartree-Fock + 1.0000 wB97X-D + LR-HF
 Correlation:  1.0000 wB97X-D
 Using Euler-Maclaurin-Lebedev (75,302) quadrature formula
 Dispersion:   Grimme D
 SCF converges when DIIS error is below 1.0E-05
 Basis2 calculation detected. Using small basis as guess for larger.
 SCFMinFind is unable to tell whether the solution found is close.
 Resetting ReadMinima to 0 and attempting to follow guess.
 SCFMinFind following SCF Guess.
 using 6 threads for integral computing
 -------------------------------------------------------
 OpenMP Integral computing Module                
 Release: version 1.0, May 2013, Q-Chem Inc. Pittsburgh 
 -------------------------------------------------------
 using 6 threads for integral computing
 -------------------------------------------------------
 OpenMP Integral computing Module                
 Release: version 1.0, May 2013, Q-Chem Inc. Pittsburgh 
 -------------------------------------------------------
 ---------------------------------------
  Cycle       Energy         DIIS Error
 ---------------------------------------
    1    -410.0120407931      8.00E-03
    2    -410.0229837654      4.00E-03
    3    -410.0430888150      9.83E-04 Done RCA. Switching to DIIS
    4    -410.0705184849      1.07E-03
    5    -410.0742366338      2.12E-04
    6    -410.0744925126      5.23E-05
    7    -410.0745738307      3.89E-05
    8    -410.0745979248      1.75E-05
    9    -410.0746126015      7.39E-06 Convergence criterion met
 ---------------------------------------
 <S^2> = 2.0192
 SCF time:  CPU 53.69 s  wall 8.97 s
 SCF   energy in the final basis set = -410.07461260
 Total energy in the final basis set = -410.07461260
 
 --------------------------------------------------------------
 
                    Orbital Energies (a.u.)
 --------------------------------------------------------------
 
 Alpha MOs
 -- Occupied --
-19.3909 -19.3895 -19.3688 -19.3688 -14.7778 -14.6090  -1.4347  -1.3580
 -1.2767  -1.1693  -0.8511  -0.7779  -0.7230  -0.7133  -0.6862  -0.6528
 -0.6284  -0.6224  -0.4975  -0.4833  -0.4762  -0.4654  -0.4346  -0.3297
 -- Virtual --
 -0.0345   0.0171   0.0523   0.0982   0.1198   0.1359   0.1401   0.1691
  0.1775   0.1842   0.2261   0.2416   0.2472   0.2567   0.2754   0.2835
  0.3017   0.3056   0.3224   0.3441   0.3521   0.3625   0.3680   0.3879
  0.4003   0.4246   0.4489   0.4588   0.4999   0.5473   0.7438   0.7630
  0.8061   0.8299   0.8596   0.8723   0.9086   0.9554   0.9756   1.0146
  1.0244   1.0471   1.0552   1.0647   1.0820   1.0838   1.1175   1.1367
  1.1409   1.1618   1.1677   1.1932   1.2239   1.2371   1.2505   1.3131
  1.4450   1.4483   1.4847   1.5307   1.5483   1.5917   1.6024   1.6140
  1.6403   1.6649   1.6946   1.7783   1.8089   1.8955   1.9007   1.9621
  1.9756   2.0761   2.1662   2.2655   2.3193   2.3939   2.4434   2.5002
  2.5063   2.5505   2.6665   2.7664   3.4972   3.5484   3.5587   3.5948
  3.6103   3.6554   3.6607   3.6790   3.7230   3.7737   3.8036   3.8715
  3.9382   3.9528   4.0099   4.0322   4.0548   4.3359   4.4584   4.4634
  4.4784   4.6116   4.6636   4.6896   4.7054   4.7199   4.7484   4.7879
  4.8433   4.9242   4.9919   4.9997   5.0246   5.0277   5.0337   5.0361
  5.0584   5.0732   5.0963   5.0982   5.1126   5.1419   5.1633   5.1836
  5.2041   5.2755   5.3056   5.3413   5.3885   5.4095   5.4713   5.4812
  5.4979   5.5331   5.5572   5.6452   5.6486   5.7454   5.9495   6.0896
  6.3576   6.3999   6.5190   6.6580   6.6801   6.7343   6.7450   6.7510
  6.7831   6.7990   6.8656   6.9500   6.9768   7.0470   7.0733   7.0816
  7.1157   7.1712   7.1801   7.2017   7.2904   7.3298   7.4405   7.4770
  7.6052   7.6878   7.7190   7.7522   7.8995   8.4965  35.9239  36.0570
 49.9853  50.1732  50.2156  50.2527
 
 Beta MOs
 -- Occupied --
-19.3772 -19.3717 -19.3692 -19.3670 -14.7773 -14.5915  -1.4314  -1.3202
 -1.2748  -1.1311  -0.8115  -0.7493  -0.7117  -0.7032  -0.6816  -0.5980
 -0.5728  -0.5512  -0.4801  -0.4695  -0.4586  -0.4572
 -- Virtual --
 -0.1355  -0.0326  -0.0064   0.0618   0.0824   0.1085   0.1241   0.1395
  0.1444   0.1709   0.1808   0.1889   0.2272   0.2446   0.2504   0.2588
  0.2782   0.2862   0.3044   0.3110   0.3251   0.3455   0.3542   0.3644
  0.3697   0.3930   0.4106   0.4286   0.4526   0.4634   0.5186   0.5519
  0.7528   0.7729   0.8206   0.8429   0.8723   0.8833   0.9114   0.9645
  0.9843   1.0181   1.0376   1.0550   1.0649   1.0771   1.0944   1.1067
  1.1236   1.1476   1.1543   1.1651   1.1880   1.2024   1.2364   1.2474
  1.2638   1.3278   1.4592   1.4646   1.4880   1.5330   1.5528   1.6021
  1.6151   1.6281   1.6631   1.6828   1.7202   1.7866   1.8154   1.9030
  1.9073   1.9784   1.9939   2.0794   2.1885   2.2807   2.3324   2.4046
  2.4564   2.5082   2.5142   2.5605   2.6718   2.7700   3.5157   3.5715
  3.5835   3.6162   3.6190   3.6576   3.6732   3.6996   3.7315   3.8062
  3.8697   3.8931   3.9564   3.9675   4.0323   4.0369   4.0757   4.3379
  4.4619   4.4659   4.4844   4.6433   4.6996   4.7088   4.7176   4.7440
  4.7848   4.8295   4.8722   4.9732   5.0050   5.0144   5.0344   5.0352
  5.0558   5.0692   5.0778   5.0781   5.1059   5.1125   5.1399   5.1638
  5.1880   5.2187   5.2252   5.3059   5.3220   5.3461   5.4037   5.4249
  5.4792   5.4921   5.5123   5.5593   5.5751   5.6533   5.6801   5.7522
  5.9658   6.1341   6.3667   6.4009   6.5295   6.7004   6.7147   6.7507
  6.7876   6.7945   6.8105   6.8135   6.8688   6.9803   6.9846   7.0587
  7.0831   7.1023   7.1177   7.1921   7.2104   7.2330   7.2946   7.3454
  7.4545   7.5000   7.6345   7.7008   7.7406   7.7837   7.9042   8.4984
 35.9449  36.0576  50.0000  50.1898  50.2170  50.2531
 --------------------------------------------------------------
 
 -----------------------------------------------------------------
                    Cartesian Multipole Moments
 -----------------------------------------------------------------
    Charge (ESU x 10^10)
                -0.0000
    Dipole Moment (Debye)
         X       0.2530      Y      -0.0907      Z       0.0626
       Tot       0.2760
    Quadrupole Moments (Debye-Ang)
        XX     -32.5119     XY      -0.3794     YY     -32.3995
        XZ      -0.3703     YZ       0.8329     ZZ     -32.3710
    Octopole Moments (Debye-Ang^2)
       XXX     -32.5782    XXY     -11.8942    XYY     -10.3971
       YYY     -38.3563    XXZ     -94.4018    XYZ      -2.5411
       YYZ     -89.4761    XZZ     -13.1659    YZZ      -5.1630
       ZZZ    -278.2692
    Hexadecapole Moments (Debye-Ang^3)
      XXXX    -140.6085   XXXY     -60.6027   XXYY     -82.7076
      XYYY     -62.5259   YYYY    -360.0824   XXXZ     -88.6506
      XXYZ     -12.0423   XYYZ     -26.3441   YYYZ     -32.0461
      XXZZ    -318.1161   XYZZ     -31.3982   YYZZ    -330.8433
      XZZZ     -91.3654   YZZZ       5.8045   ZZZZ   -1724.9681
 -----------------------------------------------------------------
Archival summary:
1\1\centos77-c5\SP\ProcedureUnspecified\BasisUnspecified\42(3)\shihchen\MonJul1315:44:022020MonJul1315:44:022020\0\\#,ProcedureUnspecified,BasisUnspecified,\\0,3\N\O,1,1.18953\O,1,1.19234,2,141.543\O,1,1.51468,2,114.95,3,-179.302,0\N,4,1.65892,1,110.108,2,2.36877,0\O,5,1.16948,4,119.85,1,95.6949,0\\\@

 Total job time:  13.66s(wall), 71.91s(cpu) 
 Mon Jul 13 15:44:02 2020

        *************************************************************
        *                                                           *
        *  Thank you very much for using Q-Chem.  Have a nice day.  *
        *                                                           *
        *************************************************************


