                  Welcome to Q-Chem
     A Quantum Leap Into The Future Of Chemistry


 Q-Chem 5.3 (devel), Q-Chem, Inc., Pleasanton, CA (2020)

 Yihan Shao,  Zhengting Gan,  E. Epifanovsky,  A. T. B. Gilbert,  M. Wormit,  
 J. Kussmann,  A. W. Lange,  A. Behn,  Jia Deng,  Xintian Feng,  D. Ghosh,  
 M. Goldey,  P. R. Horn,  L. D. Jacobson,  I. Kaliman,  T. Kus,  A. Landau,  
 Jie Liu,  E. I. Proynov,  R. M. Richard,  R. P. Steele,  E. J. Sundstrom,  
 H. L. Woodcock III,  P. M. Zimmerman,  D. Zuev,  B. Alam,  B. Albrecht,  
 E. Alguire,  S. A. Baeppler,  D. Barton,  Z. Benda,  Y. A. Bernard,  
 E. J. Berquist,  K. B. Bravaya,  H. Burton,  K. Carter-Fenk,  D. Casanova,  
 Chun-Min Chang,  Yunqing Chen,  A. Chien,  K. D. Closser,  M. P. Coons,  
 S. Coriani,  S. Dasgupta,  A. L. Dempwolff,  M. Diedenhofen,  Hainam Do,  
 R. G. Edgar,  Po-Tung Fang,  S. Faraji,  S. Fatehi,  Qingguo Feng,  
 J. Fosso-Tande,  J. Gayvert,  Qinghui Ge,  A. Ghysels,  G. Gidofalvi,  
 J. Gomes,  J. Gonthier,  A. Gunina,  D. Hait,  M. W. D. Hanson-Heine,  
 P. H. P. Harbach,  A. W. Hauser,  M. F. Herbst,  J. E. Herr,  
 E. G. Hohenstein,  Z. C. Holden,  Kerwin Hui,  B. C. Huynh,  T.-C. Jagau,  
 Hyunjun Ji,  B. Kaduk,  K. Khistyaev,  Jaehoon Kim,  P. Klunzinger,  K. Koh,  
 D. Kosenkov,  L. Koulias,  T. Kowalczyk,  C. M. Krauter,  A. Kunitsa,  
 Ka Un Lao,  A. Laurent,  K. V. Lawler,  Joonho Lee,  D. Lefrancois,  
 S. Lehtola,  D. S. Levine,  Yi-Pei Li,  You-Sheng Lin,  Fenglai Liu,  
 Kuan-Yu Liu,  E. Livshits,  M. Loipersberger,  A. Luenser,  P. Manohar,  
 E. Mansoor,  S. F. Manzer,  Shan-Ping Mao,  Yuezhi Mao,  N. Mardirossian,  
 A. V. Marenich,  T. Markovich,  L. A. Martinez-Martinez,  S. A. Maurer,  
 N. J. Mayhall,  S. C. McKenzie,  J.-M. Mewes,  P. Morgante,  A. F. Morrison,  
 J. W. Mullinax,  K. Nanda,  T. S. Nguyen-Beck,  R. Olivares-Amaya,  
 K. J. Oosterbaan,  J. A. Parkhill,  S. K. Paul,  F. Pavosevic,  Zheng Pei,  
 T. M. Perrine,  F. Plasser,  P. Pokhilko,  S. Prager,  A. Prociuk,  
 E. Ramos,  B. Rana,  D. R. Rehn,  F. Rob,  M. Scheurer,  M. Schneider,  
 N. Sergueev,  S. M. Sharada,  S. Sharma,  D. W. Small,  T. Stauch,  
 C. J. Stein,  T. Stein,  Yu-Chuan Su,  S. P. Veccham,  Zhen Tao,  
 A. J. W. Thom,  A. Tkatchenko,  T. Tsuchimochi,  N. M. Tubman,  L. Vogt,  
 M. L. Vidal,  O. Vydrov,  M. A. Watson,  J. Wenzel,  M. de Wergifosse,  
 T. A. Wesolowski,  A. White,  J. Witte,  A. Yamada,  Jun Yang,  K. Yao,  
 S. Yeganeh,  S. R. Yost,  Zhi-Qiang You,  A. Zech,  Igor Ying Zhang,  
 Xing Zhang,  Yan Zhao,  Ying Zhu,  B. R. Brooks,  G. K. L. Chan,  
 C. J. Cramer,  M. S. Gordon,  W. J. Hehre,  A. Klamt,  M. W. Schmidt,  
 C. D. Sherrill,  D. G. Truhlar,  A. Aspuru-Guzik,  R. Baer,  A. T. Bell,  
 N. A. Besley,  Jeng-Da Chai,  A. E. DePrince, III,  R. A. DiStasio Jr.,  
 A. Dreuw,  B. D. Dunietz,  T. R. Furlani,  Chao-Ping Hsu,  Yousung Jung,  
 Jing Kong,  D. S. Lambrecht,  WanZhen Liang,  C. Ochsenfeld,  
 V. A. Rassolov,  L. V. Slipchenko,  J. E. Subotnik,  T. Van Voorhis,  
 J. M. Herbert,  A. I. Krylov,  P. M. W. Gill,  M. Head-Gordon

 Contributors to earlier versions of Q-Chem not listed above: 
 R. D. Adamson,  B. Austin,  J. Baker,  G. J. O. Beran,  K. Brandhorst,  
 S. T. Brown,  E. F. C. Byrd,  A. K. Chakraborty,  C.-L. Cheng,  
 Siu Hung Chien,  D. M. Chipman,  D. L. Crittenden,  H. Dachsel,  
 R. J. Doerksen,  A. D. Dutoi,  L. Fusti-Molnar,  W. A. Goddard III,  
 A. Golubeva-Zadorozhnaya,  S. R. Gwaltney,  G. Hawkins,  A. Heyden,  
 S. Hirata,  G. Kedziora,  F. J. Keil,  C. Kelley,  Jihan Kim,  R. A. King,  
 R. Z. Khaliullin,  P. P. Korambath,  W. Kurlancheek,  A. M. Lee,  M. S. Lee,  
 S. V. Levchenko,  Ching Yeh Lin,  D. Liotard,  R. C. Lochan,  I. Lotan,  
 P. E. Maslen,  N. Nair,  D. P. O'Neill,  D. Neuhauser,  E. Neuscamman,  
 C. M. Oana,  R. Olson,  B. Peters,  R. Peverati,  P. A. Pieniazek,  
 Y. M. Rhee,  J. Ritchie,  M. A. Rohrdanz,  E. Rosta,  N. J. Russ,  
 H. F. Schaefer III,  N. E. Schultz,  N. Shenvi,  A. C. Simmonett,  A. Sodt,  
 D. Stuck,  K. S. Thanthiriwatte,  V. Vanovschi,  Tao Wang,  A. Warshel,  
 C. F. Williams,  Q. Wu,  X. Xu,  W. Zhang

 Please cite Q-Chem as follows:
 Y. Shao et al., Mol. Phys. 113, 184-215 (2015)
 DOI: 10.1080/00268976.2014.952696

 Q-Chem 5.3.0 for Intel X86 EM64T Linux

 Parts of Q-Chem use Armadillo 9.800.1 (Horizon Scraper).
 http://arma.sourceforge.net/

 Q-Chem begins on Mon Jul 13 15:31:01 2020  

Host: centos77-c5
0

     Scratch files written to /tmp/29025.centos77-h1/qchem101406//
Processing $rem in /opt/qchem-5.3.0-intel2020u1//config/preferences:
Processing $rem in /home/shihchengli/.qchemrc:

Checking the input file for inconsistencies... 	...done.

--------------------------------------------------------------
User input:
--------------------------------------------------------------
$rem
   JOBTYPE  sp
   EXCHANGE   omegaB97X-D
   BASIS   6-311+G(2df,2pd)
   UNRESTRICTED   True
   max_scf_cycles   250
   geom_opt_max_cycles   1500
   basis2 6-31G*
   scf_algorithm rca_diis
   SYM_IGNORE  TRUE
   print_input   true
   geom_opt_dmax   80
   pop_mulliken false
   XC_GRID 000075000302
$end

$molecule
0 3
N       0.6904463476     1.2587583788     2.4605785690
O       0.4667099433     2.2146188661     1.7991672207
O       1.5667785603     1.0024884956     3.2089863582
N       -0.0491266772     -1.0749651639     3.1853274071
O       -0.4134893684     -1.4965279035     4.2140267694
O       -0.3163276754     0.1906164369     2.2322135656
$end
--------------------------------------------------------------
 ----------------------------------------------------------------
             Standard Nuclear Orientation (Angstroms)
    I     Atom           X                Y                Z
 ----------------------------------------------------------------
    1      N       0.6904463476     1.2587583788     2.4605785690
    2      O       0.4667099433     2.2146188661     1.7991672207
    3      O       1.5667785603     1.0024884956     3.2089863582
    4      N      -0.0491266772    -1.0749651639     3.1853274071
    5      O      -0.4134893684    -1.4965279035     4.2140267694
    6      O      -0.3163276754     0.1906164369     2.2322135656
 ----------------------------------------------------------------
 Nuclear Repulsion Energy =         228.61217075 hartrees
 There are       24 alpha and       22 beta electrons
 Requested basis set is 6-311+G(2df,2pd)
 There are 48 shells and 204 basis functions

 Total QAlloc Memory Limit   2000 MB
 Mega-Array Size       188 MB
 MEM_STATIC part       192 MB

                       Distance Matrix (Angstroms)
             N (  1)   O (  2)   O (  3)   N (  4)   O (  5)
   O (  2)  1.183720
   O (  3)  1.180570  2.160324
   N (  4)  2.553134  3.606784  2.632019
   O (  5)  3.447442  4.514300  3.343150  1.169914
   O (  6)  1.485487  2.212976  2.271412  1.606711  2.604511
 
 A cutoff of  1.0D-09 yielded   1020 shell pairs
 There are     19023 function pairs (     24949 Cartesian)
 Smallest overlap matrix eigenvalue = 6.41E-04

 Scale SEOQF with 1.000000e-01/1.000000e-01/1.000000e-01

 Standard Electronic Orientation quadrupole field applied
 Nucleus-field energy     =    -0.0000000362 hartrees
 Requested basis set is 6-31G(d)
 There are 24 shells and 84 basis functions
 A cutoff of  1.0D-09 yielded    267 shell pairs
 There are      3530 function pairs (      4058 Cartesian)
 Smallest overlap matrix eigenvalue = 5.01E-03
 Guess from superposition of atomic densities
 Warning:  Energy on first SCF cycle will be non-variational
 SAD guess density has 46.000000 electrons
 Long-range K will be added via erf
 Coulomb attenuation parameter = 0.2 bohr**(-1)
 An unrestricted hybrid HF-DFT SCF calculation will be
 performed using Relaxed Constraint Minimization + Pulay DIIS
 Exchange:     0.2220 Hartree-Fock + 1.0000 wB97X-D + LR-HF
 Correlation:  1.0000 wB97X-D
 Using Euler-Maclaurin-Lebedev (75,302) quadrature formula
 Dispersion:   Grimme D
 SCF converges when DIIS error is below 1.0E-04
 using 6 threads for integral computing
 -------------------------------------------------------
 OpenMP Integral computing Module                
 Release: version 1.0, May 2013, Q-Chem Inc. Pittsburgh 
 -------------------------------------------------------
 using 6 threads for integral computing
 -------------------------------------------------------
 OpenMP Integral computing Module                
 Release: version 1.0, May 2013, Q-Chem Inc. Pittsburgh 
 -------------------------------------------------------
 ---------------------------------------
  Cycle       Energy         DIIS Error
 ---------------------------------------
    1    -410.9856753362      8.76E-02
    2    -409.6523431195      1.95E-02
    3    -409.7559599028      4.41E-03
    4    -409.9030085036      4.78E-03
    5    -409.9094519229      7.17E-04 Done RCA. Switching to DIIS
    6    -409.9180481628      6.96E-04
    7    -409.9185137434      1.06E-04
    8    -409.9185639507      7.86E-05 Convergence criterion met
 ---------------------------------------
 <S^2> = 2.0140
 SCF time:  CPU 14.12 s  wall 2.37 s
 SCF   energy in the small basis set = -409.91856395
 Total energy in the small basis set = -409.91856395
 ----------------------------------------------------
  Cycle       Energy    
 ----------------------------------------------------
    1     -41.7401369215     -4.17E+01
 Long-range K will be added via erf
 Coulomb attenuation parameter = 0.2 bohr**(-1)
 An unrestricted hybrid HF-DFT SCF calculation will be
 performed using Relaxed Constraint Minimization + Pulay DIIS
 Exchange:     0.2220 Hartree-Fock + 1.0000 wB97X-D + LR-HF
 Correlation:  1.0000 wB97X-D
 Using Euler-Maclaurin-Lebedev (75,302) quadrature formula
 Dispersion:   Grimme D
 SCF converges when DIIS error is below 1.0E-05
 Basis2 calculation detected. Using small basis as guess for larger.
 SCFMinFind is unable to tell whether the solution found is close.
 Resetting ReadMinima to 0 and attempting to follow guess.
 SCFMinFind following SCF Guess.
 using 6 threads for integral computing
 -------------------------------------------------------
 OpenMP Integral computing Module                
 Release: version 1.0, May 2013, Q-Chem Inc. Pittsburgh 
 -------------------------------------------------------
 using 6 threads for integral computing
 -------------------------------------------------------
 OpenMP Integral computing Module                
 Release: version 1.0, May 2013, Q-Chem Inc. Pittsburgh 
 -------------------------------------------------------
 ---------------------------------------
  Cycle       Energy         DIIS Error
 ---------------------------------------
    1    -410.0120127547      8.00E-03
    2    -410.0237087452      3.95E-03
    3    -410.0433748123      9.83E-04 Done RCA. Switching to DIIS
    4    -410.0701625080      1.05E-03
    5    -410.0737041805      1.96E-04
    6    -410.0739104361      4.31E-05
    7    -410.0739701199      2.50E-05
    8    -410.0739830897      1.56E-05
    9    -410.0739908079      6.59E-06 Convergence criterion met
 ---------------------------------------
 <S^2> = 2.0158
 SCF time:  CPU 54.45 s  wall 9.10 s
 SCF   energy in the final basis set = -410.07399081
 Total energy in the final basis set = -410.07399081
 
 --------------------------------------------------------------
 
                    Orbital Energies (a.u.)
 --------------------------------------------------------------
 
 Alpha MOs
 -- Occupied --
-19.4043 -19.3966 -19.3545 -19.3503 -14.7703 -14.6267  -1.4398  -1.3643
 -1.2617  -1.1960  -0.8751  -0.7736  -0.7197  -0.7141  -0.6827  -0.6574
 -0.6348  -0.6325  -0.4948  -0.4910  -0.4671  -0.4559  -0.4227  -0.3409
 -- Virtual --
 -0.0277  -0.0022   0.0596   0.0997   0.1178   0.1358   0.1396   0.1691
  0.1790   0.1893   0.2309   0.2437   0.2563   0.2610   0.2695   0.2967
  0.3141   0.3282   0.3379   0.3445   0.3451   0.3598   0.3702   0.4027
  0.4087   0.4350   0.4431   0.4628   0.4872   0.5284   0.7386   0.7656
  0.7979   0.8378   0.8709   0.8878   0.9223   0.9552   0.9809   1.0104
  1.0233   1.0399   1.0630   1.0753   1.0838   1.0986   1.1075   1.1199
  1.1387   1.1521   1.1567   1.1773   1.2153   1.2276   1.2948   1.3139
  1.4530   1.4948   1.5130   1.5217   1.5411   1.5708   1.5862   1.6093
  1.6321   1.6815   1.7037   1.7798   1.8081   1.8706   1.9049   1.9399
  2.0632   2.1412   2.1723   2.2017   2.3463   2.3708   2.4899   2.5091
  2.5519   2.5694   2.6925   2.8045   3.4875   3.5177   3.5603   3.5988
  3.6087   3.6608   3.6685   3.7107   3.7459   3.7676   3.7955   3.8846
  3.9232   3.9786   4.0241   4.0583   4.1070   4.4215   4.4498   4.4852
  4.4896   4.5750   4.6549   4.6629   4.6946   4.7019   4.7337   4.7638
  4.8048   4.8522   5.0061   5.0143   5.0284   5.0330   5.0408   5.0443
  5.0578   5.0730   5.0805   5.1230   5.1279   5.1367   5.1561   5.1738
  5.2072   5.2796   5.3299   5.3481   5.3952   5.4377   5.4443   5.4999
  5.5548   5.5633   5.6433   5.6781   5.7597   5.7843   5.9865   6.0227
  6.2747   6.5441   6.5547   6.6550   6.7261   6.7330   6.7616   6.7871
  6.8019   6.8364   6.8846   6.9255   6.9610   7.0050   7.0878   7.0949
  7.1613   7.1667   7.1828   7.2564   7.2895   7.3419   7.4425   7.5601
  7.6618   7.7054   7.7711   7.8878   7.9067   8.2888  35.9019  36.1218
 49.9799  50.1734  50.2369  50.2602
 
 Beta MOs
 -- Occupied --
-19.3912 -19.3797 -19.3531 -19.3507 -14.7696 -14.6063  -1.4364  -1.3257
 -1.2600  -1.1606  -0.8300  -0.7436  -0.7118  -0.7036  -0.6736  -0.6077
 -0.5840  -0.5578  -0.4753  -0.4691  -0.4663  -0.4503
 -- Virtual --
 -0.1162  -0.0220  -0.0154   0.0437   0.0825   0.1111   0.1232   0.1396
  0.1436   0.1715   0.1827   0.1929   0.2323   0.2470   0.2589   0.2643
  0.2721   0.2996   0.3209   0.3297   0.3406   0.3452   0.3467   0.3620
  0.3727   0.4062   0.4201   0.4371   0.4469   0.4686   0.5130   0.5347
  0.7489   0.7767   0.8140   0.8546   0.8845   0.8945   0.9271   0.9649
  0.9937   1.0209   1.0302   1.0605   1.0741   1.0833   1.1034   1.1078
  1.1158   1.1296   1.1433   1.1616   1.1668   1.1881   1.2258   1.2340
  1.3121   1.3267   1.4627   1.5114   1.5260   1.5357   1.5445   1.5733
  1.5979   1.6267   1.6466   1.7099   1.7112   1.7841   1.8141   1.8828
  1.9107   1.9463   2.0829   2.1499   2.1888   2.2178   2.3583   2.3772
  2.5024   2.5261   2.5565   2.5784   2.7034   2.8092   3.5121   3.5626
  3.5915   3.6152   3.6286   3.6638   3.6803   3.7165   3.7525   3.8079
  3.8623   3.9074   3.9476   3.9893   4.0250   4.0852   4.1274   4.4248
  4.4561   4.4879   4.4933   4.6018   4.6658   4.7050   4.7304   4.7362
  4.7636   4.8033   4.8473   4.8940   5.0200   5.0283   5.0415   5.0447
  5.0590   5.0670   5.0707   5.0821   5.0960   5.1303   5.1489   5.1645
  5.1805   5.1928   5.2294   5.2998   5.3571   5.3640   5.3982   5.4459
  5.4579   5.5053   5.5779   5.5888   5.6580   5.7067   5.7662   5.7938
  6.0026   6.0549   6.2797   6.5454   6.5665   6.6997   6.7638   6.7852
  6.7926   6.7942   6.8206   6.8606   6.8867   6.9265   6.9894   7.0177
  7.1051   7.1105   7.1653   7.2023   7.2109   7.2634   7.3127   7.3480
  7.4718   7.5657   7.6902   7.7180   7.7820   7.8954   7.9357   8.2910
 35.9269  36.1228  49.9939  50.1890  50.2382  50.2602
 --------------------------------------------------------------
 
 -----------------------------------------------------------------
                    Cartesian Multipole Moments
 -----------------------------------------------------------------
    Charge (ESU x 10^10)
                -0.0000
    Dipole Moment (Debye)
         X      -0.2086      Y      -0.5576      Z       0.1094
       Tot       0.6053
    Quadrupole Moments (Debye-Ang)
        XX     -32.8535     XY      -0.9665     YY     -33.3335
        XZ      -1.8351     YZ      -0.0103     ZZ     -32.1999
    Octopole Moments (Debye-Ang^2)
       XXX     -33.1467    XXY     -12.9573    XYY     -11.4373
       YYY     -39.9485    XXZ     -95.2231    XYZ      -3.9675
       YYZ     -91.8735    XZZ     -18.1000    YZZ      -6.8167
       ZZZ    -277.6064
    Hexadecapole Moments (Debye-Ang^3)
      XXXX    -136.4396   XXXY     -67.1071   XXYY     -86.2462
      XYYY     -70.2523   YYYY    -381.0985   XXXZ     -88.3077
      XXYZ     -12.4242   XYYZ     -28.3314   YYYZ     -26.4010
      XXZZ    -320.6532   XYZZ     -36.6913   YYZZ    -342.7947
      XZZZ    -106.7490   YZZZ       9.5167   ZZZZ   -1728.5773
 -----------------------------------------------------------------
Archival summary:
1\1\centos77-c5\SP\ProcedureUnspecified\BasisUnspecified\42(3)\shihchen\MonJul1315:31:152020MonJul1315:31:152020\0\\#,ProcedureUnspecified,BasisUnspecified,\\0,3\N\O,1,1.18057\O,1,1.18372,2,132.052\O,1,1.48549,2,116.388,3,177.141,0\N,4,1.60671,1,111.253,2,5.08519,0\O,5,1.16991,4,138.907,1,95.7922,0\\\@

 Total job time:  13.81s(wall), 72.66s(cpu) 
 Mon Jul 13 15:31:15 2020

        *************************************************************
        *                                                           *
        *  Thank you very much for using Q-Chem.  Have a nice day.  *
        *                                                           *
        *************************************************************


