                  Welcome to Q-Chem
     A Quantum Leap Into The Future Of Chemistry


 Q-Chem 5.3 (devel), Q-Chem, Inc., Pleasanton, CA (2020)

 Yihan Shao,  Zhengting Gan,  E. Epifanovsky,  A. T. B. Gilbert,  M. Wormit,  
 J. Kussmann,  A. W. Lange,  A. Behn,  Jia Deng,  Xintian Feng,  D. Ghosh,  
 M. Goldey,  P. R. Horn,  L. D. Jacobson,  I. Kaliman,  T. Kus,  A. Landau,  
 Jie Liu,  E. I. Proynov,  R. M. Richard,  R. P. Steele,  E. J. Sundstrom,  
 H. L. Woodcock III,  P. M. Zimmerman,  D. Zuev,  B. Alam,  B. Albrecht,  
 E. Alguire,  S. A. Baeppler,  D. Barton,  Z. Benda,  Y. A. Bernard,  
 E. J. Berquist,  K. B. Bravaya,  H. Burton,  K. Carter-Fenk,  D. Casanova,  
 Chun-Min Chang,  Yunqing Chen,  A. Chien,  K. D. Closser,  M. P. Coons,  
 S. Coriani,  S. Dasgupta,  A. L. Dempwolff,  M. Diedenhofen,  Hainam Do,  
 R. G. Edgar,  Po-Tung Fang,  S. Faraji,  S. Fatehi,  Qingguo Feng,  
 J. Fosso-Tande,  J. Gayvert,  Qinghui Ge,  A. Ghysels,  G. Gidofalvi,  
 J. Gomes,  J. Gonthier,  A. Gunina,  D. Hait,  M. W. D. Hanson-Heine,  
 P. H. P. Harbach,  A. W. Hauser,  M. F. Herbst,  J. E. Herr,  
 E. G. Hohenstein,  Z. C. Holden,  Kerwin Hui,  B. C. Huynh,  T.-C. Jagau,  
 Hyunjun Ji,  B. Kaduk,  K. Khistyaev,  Jaehoon Kim,  P. Klunzinger,  K. Koh,  
 D. Kosenkov,  L. Koulias,  T. Kowalczyk,  C. M. Krauter,  A. Kunitsa,  
 Ka Un Lao,  A. Laurent,  K. V. Lawler,  Joonho Lee,  D. Lefrancois,  
 S. Lehtola,  D. S. Levine,  Yi-Pei Li,  You-Sheng Lin,  Fenglai Liu,  
 Kuan-Yu Liu,  E. Livshits,  M. Loipersberger,  A. Luenser,  P. Manohar,  
 E. Mansoor,  S. F. Manzer,  Shan-Ping Mao,  Yuezhi Mao,  N. Mardirossian,  
 A. V. Marenich,  T. Markovich,  L. A. Martinez-Martinez,  S. A. Maurer,  
 N. J. Mayhall,  S. C. McKenzie,  J.-M. Mewes,  P. Morgante,  A. F. Morrison,  
 J. W. Mullinax,  K. Nanda,  T. S. Nguyen-Beck,  R. Olivares-Amaya,  
 K. J. Oosterbaan,  J. A. Parkhill,  S. K. Paul,  F. Pavosevic,  Zheng Pei,  
 T. M. Perrine,  F. Plasser,  P. Pokhilko,  S. Prager,  A. Prociuk,  
 E. Ramos,  B. Rana,  D. R. Rehn,  F. Rob,  M. Scheurer,  M. Schneider,  
 N. Sergueev,  S. M. Sharada,  S. Sharma,  D. W. Small,  T. Stauch,  
 C. J. Stein,  T. Stein,  Yu-Chuan Su,  S. P. Veccham,  Zhen Tao,  
 A. J. W. Thom,  A. Tkatchenko,  T. Tsuchimochi,  N. M. Tubman,  L. Vogt,  
 M. L. Vidal,  O. Vydrov,  M. A. Watson,  J. Wenzel,  M. de Wergifosse,  
 T. A. Wesolowski,  A. White,  J. Witte,  A. Yamada,  Jun Yang,  K. Yao,  
 S. Yeganeh,  S. R. Yost,  Zhi-Qiang You,  A. Zech,  Igor Ying Zhang,  
 Xing Zhang,  Yan Zhao,  Ying Zhu,  B. R. Brooks,  G. K. L. Chan,  
 C. J. Cramer,  M. S. Gordon,  W. J. Hehre,  A. Klamt,  M. W. Schmidt,  
 C. D. Sherrill,  D. G. Truhlar,  A. Aspuru-Guzik,  R. Baer,  A. T. Bell,  
 N. A. Besley,  Jeng-Da Chai,  A. E. DePrince, III,  R. A. DiStasio Jr.,  
 A. Dreuw,  B. D. Dunietz,  T. R. Furlani,  Chao-Ping Hsu,  Yousung Jung,  
 Jing Kong,  D. S. Lambrecht,  WanZhen Liang,  C. Ochsenfeld,  
 V. A. Rassolov,  L. V. Slipchenko,  J. E. Subotnik,  T. Van Voorhis,  
 J. M. Herbert,  A. I. Krylov,  P. M. W. Gill,  M. Head-Gordon

 Contributors to earlier versions of Q-Chem not listed above: 
 R. D. Adamson,  B. Austin,  J. Baker,  G. J. O. Beran,  K. Brandhorst,  
 S. T. Brown,  E. F. C. Byrd,  A. K. Chakraborty,  C.-L. Cheng,  
 Siu Hung Chien,  D. M. Chipman,  D. L. Crittenden,  H. Dachsel,  
 R. J. Doerksen,  A. D. Dutoi,  L. Fusti-Molnar,  W. A. Goddard III,  
 A. Golubeva-Zadorozhnaya,  S. R. Gwaltney,  G. Hawkins,  A. Heyden,  
 S. Hirata,  G. Kedziora,  F. J. Keil,  C. Kelley,  Jihan Kim,  R. A. King,  
 R. Z. Khaliullin,  P. P. Korambath,  W. Kurlancheek,  A. M. Lee,  M. S. Lee,  
 S. V. Levchenko,  Ching Yeh Lin,  D. Liotard,  R. C. Lochan,  I. Lotan,  
 P. E. Maslen,  N. Nair,  D. P. O'Neill,  D. Neuhauser,  E. Neuscamman,  
 C. M. Oana,  R. Olson,  B. Peters,  R. Peverati,  P. A. Pieniazek,  
 Y. M. Rhee,  J. Ritchie,  M. A. Rohrdanz,  E. Rosta,  N. J. Russ,  
 H. F. Schaefer III,  N. E. Schultz,  N. Shenvi,  A. C. Simmonett,  A. Sodt,  
 D. Stuck,  K. S. Thanthiriwatte,  V. Vanovschi,  Tao Wang,  A. Warshel,  
 C. F. Williams,  Q. Wu,  X. Xu,  W. Zhang

 Please cite Q-Chem as follows:
 Y. Shao et al., Mol. Phys. 113, 184-215 (2015)
 DOI: 10.1080/00268976.2014.952696

 Q-Chem 5.3.0 for Intel X86 EM64T Linux

 Parts of Q-Chem use Armadillo 9.800.1 (Horizon Scraper).
 http://arma.sourceforge.net/

 Q-Chem begins on Mon Jul 13 15:53:15 2020  

Host: centos77-c5
0

     Scratch files written to /tmp/29025.centos77-h1/qchem103489//
Processing $rem in /opt/qchem-5.3.0-intel2020u1//config/preferences:
Processing $rem in /home/shihchengli/.qchemrc:

Checking the input file for inconsistencies... 	...done.

--------------------------------------------------------------
User input:
--------------------------------------------------------------
$rem
   JOBTYPE  sp
   EXCHANGE   omegaB97X-D
   BASIS   6-311+G(2df,2pd)
   UNRESTRICTED   True
   max_scf_cycles   250
   geom_opt_max_cycles   1500
   basis2 6-31G*
   scf_algorithm rca_diis
   SYM_IGNORE  TRUE
   print_input   true
   geom_opt_dmax   80
   pop_mulliken false
   XC_GRID 000075000302
$end

$molecule
0 3
N       0.7562437284     1.1486973727     2.5518864674
O       0.3594211029     2.2182480709     1.8289700891
O       1.5526864735     0.9906940489     3.1591919500
N       0.0333130138     -1.1450438499     3.1405997229
O       -0.4692372011     -1.3189773399     4.1676597372
O       -0.2874359873     0.2013708072     2.2519919235
$end
--------------------------------------------------------------
 ----------------------------------------------------------------
             Standard Nuclear Orientation (Angstroms)
    I     Atom           X                Y                Z
 ----------------------------------------------------------------
    1      N       0.7562437284     1.1486973727     2.5518864674
    2      O       0.3594211029     2.2182480709     1.8289700891
    3      O       1.5526864735     0.9906940489     3.1591919500
    4      N       0.0333130138    -1.1450438499     3.1405997229
    5      O      -0.4692372011    -1.3189773399     4.1676597372
    6      O      -0.2874359873     0.2013708072     2.2519919235
 ----------------------------------------------------------------
 Nuclear Repulsion Energy =         233.44044055 hartrees
 There are       24 alpha and       22 beta electrons
 Requested basis set is 6-311+G(2df,2pd)
 There are 48 shells and 204 basis functions

 Total QAlloc Memory Limit   2000 MB
 Mega-Array Size       188 MB
 MEM_STATIC part       192 MB

                       Distance Matrix (Angstroms)
             N (  1)   O (  2)   O (  3)   N (  4)   O (  5)
   O (  2)  1.350561
   O (  3)  1.013956  2.168009
   N (  4)  2.475977  3.624700  2.621110
   O (  5)  3.194048  4.320661  3.231062  1.156573
   O (  6)  1.441052  2.159899  2.198202  1.644791  2.452406
 
 A cutoff of  1.0D-09 yielded   1027 shell pairs
 There are     19173 function pairs (     25167 Cartesian)
 Smallest overlap matrix eigenvalue = 4.78E-04

 Scale SEOQF with 1.000000e-01/1.000000e-01/1.000000e-01

 Standard Electronic Orientation quadrupole field applied
 Nucleus-field energy     =    -0.0000000363 hartrees
 Requested basis set is 6-31G(d)
 There are 24 shells and 84 basis functions
 A cutoff of  1.0D-09 yielded    267 shell pairs
 There are      3502 function pairs (      4026 Cartesian)
 Smallest overlap matrix eigenvalue = 3.41E-03
 Guess from superposition of atomic densities
 Warning:  Energy on first SCF cycle will be non-variational
 SAD guess density has 46.000000 electrons
 Long-range K will be added via erf
 Coulomb attenuation parameter = 0.2 bohr**(-1)
 An unrestricted hybrid HF-DFT SCF calculation will be
 performed using Relaxed Constraint Minimization + Pulay DIIS
 Exchange:     0.2220 Hartree-Fock + 1.0000 wB97X-D + LR-HF
 Correlation:  1.0000 wB97X-D
 Using Euler-Maclaurin-Lebedev (75,302) quadrature formula
 Dispersion:   Grimme D
 SCF converges when DIIS error is below 1.0E-04
 using 6 threads for integral computing
 -------------------------------------------------------
 OpenMP Integral computing Module                
 Release: version 1.0, May 2013, Q-Chem Inc. Pittsburgh 
 -------------------------------------------------------
 using 6 threads for integral computing
 -------------------------------------------------------
 OpenMP Integral computing Module                
 Release: version 1.0, May 2013, Q-Chem Inc. Pittsburgh 
 -------------------------------------------------------
 ---------------------------------------
  Cycle       Energy         DIIS Error
 ---------------------------------------
    1    -411.2113142459      9.63E-02
    2    -409.5710372093      1.92E-02
    3    -409.6580413120      6.84E-03
    4    -409.7969009648      6.77E-03
    5    -409.8145256450      7.19E-04 Done RCA. Switching to DIIS
    6    -409.8369552084      8.81E-04
    7    -409.8375322975      1.92E-04
    8    -409.8376654834      7.80E-05 Convergence criterion met
 ---------------------------------------
 <S^2> = 2.0155
 SCF time:  CPU 14.36 s  wall 2.41 s
 SCF   energy in the small basis set = -409.83766548
 Total energy in the small basis set = -409.83766548
 ----------------------------------------------------
  Cycle       Energy    
 ----------------------------------------------------
    1     -41.8339438136     -4.18E+01
 Long-range K will be added via erf
 Coulomb attenuation parameter = 0.2 bohr**(-1)
 An unrestricted hybrid HF-DFT SCF calculation will be
 performed using Relaxed Constraint Minimization + Pulay DIIS
 Exchange:     0.2220 Hartree-Fock + 1.0000 wB97X-D + LR-HF
 Correlation:  1.0000 wB97X-D
 Using Euler-Maclaurin-Lebedev (75,302) quadrature formula
 Dispersion:   Grimme D
 SCF converges when DIIS error is below 1.0E-05
 Basis2 calculation detected. Using small basis as guess for larger.
 SCFMinFind is unable to tell whether the solution found is close.
 Resetting ReadMinima to 0 and attempting to follow guess.
 SCFMinFind following SCF Guess.
 using 6 threads for integral computing
 -------------------------------------------------------
 OpenMP Integral computing Module                
 Release: version 1.0, May 2013, Q-Chem Inc. Pittsburgh 
 -------------------------------------------------------
 using 6 threads for integral computing
 -------------------------------------------------------
 OpenMP Integral computing Module                
 Release: version 1.0, May 2013, Q-Chem Inc. Pittsburgh 
 -------------------------------------------------------
 ---------------------------------------
  Cycle       Energy         DIIS Error
 ---------------------------------------
    1    -409.8994756116      8.42E-03
    2    -409.8033194823      7.37E-03
    3    -409.8608337151      3.19E-03
    4    -409.9191165551      2.15E-03
    5    -409.9504478588      1.27E-03
    6    -409.9853477856      1.47E-03
    7    -409.9915966284      1.71E-04 Done RCA. Switching to DIIS
    8    -410.0039360797      9.39E-05
    9    -410.0043237691      9.22E-05
   10    -410.0044276879      1.16E-04
   11    -410.0044785047      1.34E-04
   12    -410.0044962456      1.33E-04
   13    -410.0045590951      7.51E-05
   14    -410.0045863385      1.28E-05
   15    -410.0045879995      4.95E-06 Convergence criterion met
 ---------------------------------------
 <S^2> = 2.0180
 SCF time:  CPU 96.27 s  wall 16.08 s
 SCF   energy in the final basis set = -410.00458800
 Total energy in the final basis set = -410.00458800
 
 --------------------------------------------------------------
 
                    Orbital Energies (a.u.)
 --------------------------------------------------------------
 
 Alpha MOs
 -- Occupied --
-19.4089 -19.4034 -19.3925 -19.3127 -14.7718 -14.6099  -1.5603  -1.3738
 -1.2486  -1.1540  -0.8631  -0.7860  -0.7743  -0.7573  -0.7131  -0.6575
 -0.6391  -0.6320  -0.5058  -0.4962  -0.4668  -0.4358  -0.4124  -0.3329
 -- Virtual --
 -0.0100   0.0211   0.0654   0.1074   0.1203   0.1338   0.1395   0.1684
  0.1729   0.1842   0.2183   0.2270   0.2400   0.2511   0.2703   0.2853
  0.3013   0.3170   0.3277   0.3416   0.3506   0.3580   0.3675   0.3781
  0.3978   0.4292   0.4431   0.4706   0.5035   0.6670   0.7290   0.7483
  0.7998   0.8254   0.8630   0.8760   0.9046   0.9456   0.9745   1.0184
  1.0437   1.0539   1.0559   1.0689   1.0716   1.0841   1.1274   1.1285
  1.1548   1.1626   1.1731   1.1762   1.2229   1.2585   1.2649   1.2997
  1.4418   1.4928   1.5050   1.5542   1.5722   1.5859   1.6013   1.6348
  1.6581   1.6871   1.7267   1.8010   1.8056   1.9029   1.9346   1.9671
  1.9957   2.1326   2.1773   2.2565   2.3590   2.3705   2.4422   2.4566
  2.5305   2.6182   2.7014   2.7590   3.4953   3.5358   3.5645   3.5696
  3.6104   3.6425   3.6574   3.6877   3.7125   3.7615   3.7978   3.8796
  3.9498   3.9557   4.0563   4.0642   4.1746   4.2025   4.3285   4.4130
  4.5164   4.5732   4.6102   4.6608   4.7038   4.7136   4.7766   4.8630
  4.9054   4.9625   4.9660   5.0027   5.0076   5.0255   5.0409   5.0689
  5.0904   5.0992   5.1102   5.1175   5.1219   5.1715   5.1769   5.2011
  5.2195   5.2510   5.2782   5.3609   5.3864   5.4207   5.4333   5.5020
  5.5475   5.5603   5.6475   5.7279   5.8017   5.8151   6.0145   6.1223
  6.2562   6.4078   6.6688   6.7018   6.7181   6.7306   6.7356   6.7477
  6.8026   6.8097   6.8609   6.9765   7.0308   7.0852   7.1284   7.1715
  7.1904   7.2073   7.2370   7.2832   7.3897   7.4993   7.5227   7.5682
  7.6145   7.7235   7.7871   7.8506   8.2699   8.5359  35.9568  36.2349
 49.9911  50.0840  50.1944  50.6158
 
 Beta MOs
 -- Occupied --
-19.4094 -19.3906 -19.3750 -19.3090 -14.7716 -14.5928  -1.5599  -1.3370
 -1.2277  -1.1337  -0.8254  -0.7745  -0.7635  -0.7394  -0.6962  -0.6068
 -0.5840  -0.5620  -0.4889  -0.4812  -0.4286  -0.4131
 -- Virtual --
 -0.1403  -0.0080  -0.0046   0.0683   0.0800   0.1180   0.1282   0.1385
  0.1431   0.1715   0.1768   0.1888   0.2206   0.2283   0.2443   0.2539
  0.2726   0.2892   0.3088   0.3189   0.3295   0.3433   0.3524   0.3603
  0.3690   0.3813   0.4077   0.4340   0.4476   0.4739   0.5233   0.6768
  0.7372   0.7546   0.8142   0.8430   0.8689   0.8885   0.9080   0.9508
  0.9862   1.0255   1.0518   1.0604   1.0671   1.0815   1.0917   1.0994
  1.1354   1.1416   1.1670   1.1751   1.1816   1.1869   1.2353   1.2690
  1.2758   1.3143   1.4615   1.4963   1.5160   1.5608   1.5783   1.5980
  1.6187   1.6562   1.6726   1.7134   1.7380   1.8062   1.8123   1.9137
  1.9395   1.9824   2.0131   2.1436   2.1908   2.2704   2.3672   2.3834
  2.4589   2.4621   2.5462   2.6267   2.7043   2.7629   3.5120   3.5618
  3.5858   3.5898   3.6221   3.6553   3.6598   3.7085   3.7222   3.7933
  3.8627   3.8978   3.9618   3.9784   4.0788   4.0849   4.1754   4.2088
  4.3287   4.4184   4.5192   4.5985   4.6275   4.6912   4.7298   4.7535
  4.8207   4.9011   4.9525   4.9670   4.9719   5.0115   5.0311   5.0601
  5.0714   5.0848   5.1021   5.1109   5.1238   5.1277   5.1498   5.1960
  5.2036   5.2196   5.2323   5.2732   5.3027   5.3774   5.4036   5.4290
  5.4406   5.5222   5.5681   5.5908   5.6780   5.7338   5.8070   5.8204
  6.0258   6.1627   6.2712   6.4116   6.6821   6.7116   6.7572   6.7627
  6.7965   6.8072   6.8157   6.8187   6.8720   7.0046   7.0467   7.0963
  7.1423   7.1953   7.2090   7.2255   7.2536   7.3050   7.4151   7.5194
  7.5375   7.5695   7.6290   7.7510   7.8150   7.8603   8.2755   8.5374
 35.9774  36.2352  50.0034  50.0889  50.2107  50.6155
 --------------------------------------------------------------
 
 -----------------------------------------------------------------
                    Cartesian Multipole Moments
 -----------------------------------------------------------------
    Charge (ESU x 10^10)
                -0.0000
    Dipole Moment (Debye)
         X       1.0782      Y      -1.2092      Z       1.0953
       Tot       1.9556
    Quadrupole Moments (Debye-Ang)
        XX     -30.5886     XY       0.1378     YY     -35.9803
        XZ       2.7275     YZ      -0.1105     ZZ     -27.1617
    Octopole Moments (Debye-Ang^2)
       XXX     -28.0875    XXY     -10.9243    XYY     -10.4314
       YYY     -47.5751    XXZ     -87.9572    XYZ       0.3636
       YYZ     -95.3566    XZZ      -2.1835    YZZ      -3.5359
       ZZZ    -256.1768
    Hexadecapole Moments (Debye-Ang^3)
      XXXX    -124.3451   XXXY     -56.2030   XXYY     -81.3688
      XYYY     -63.6782   YYYY    -384.6071   XXXZ     -73.2037
      XXYZ      -6.8869   XYYZ     -22.9441   YYYZ     -49.4200
      XXZZ    -295.5040   XYZZ     -19.5839   YYZZ    -339.1023
      XZZZ     -50.3100   YZZZ      22.1226   ZZZZ   -1632.1406
 -----------------------------------------------------------------
Archival summary:
1\1\centos77-c5\SP\ProcedureUnspecified\BasisUnspecified\42(3)\shihchen\MonJul1315:53:362020MonJul1315:53:362020\0\\#,ProcedureUnspecified,BasisUnspecified,\\0,3\N\O,1,1.01396\O,1,1.35056,2,132.438\O,1,1.44105,2,126.234,3,-179.761,0\N,4,1.64479,1,106.527,2,2.63506,0\O,5,1.15657,4,121.207,1,95.6949,0\\\@

 Total job time:  20.84s(wall), 114.73s(cpu) 
 Mon Jul 13 15:53:36 2020

        *************************************************************
        *                                                           *
        *  Thank you very much for using Q-Chem.  Have a nice day.  *
        *                                                           *
        *************************************************************


