                  Welcome to Q-Chem
     A Quantum Leap Into The Future Of Chemistry


 Q-Chem 5.3 (devel), Q-Chem, Inc., Pleasanton, CA (2020)

 Yihan Shao,  Zhengting Gan,  E. Epifanovsky,  A. T. B. Gilbert,  M. Wormit,  
 J. Kussmann,  A. W. Lange,  A. Behn,  Jia Deng,  Xintian Feng,  D. Ghosh,  
 M. Goldey,  P. R. Horn,  L. D. Jacobson,  I. Kaliman,  T. Kus,  A. Landau,  
 Jie Liu,  E. I. Proynov,  R. M. Richard,  R. P. Steele,  E. J. Sundstrom,  
 H. L. Woodcock III,  P. M. Zimmerman,  D. Zuev,  B. Alam,  B. Albrecht,  
 E. Alguire,  S. A. Baeppler,  D. Barton,  Z. Benda,  Y. A. Bernard,  
 E. J. Berquist,  K. B. Bravaya,  H. Burton,  K. Carter-Fenk,  D. Casanova,  
 Chun-Min Chang,  Yunqing Chen,  A. Chien,  K. D. Closser,  M. P. Coons,  
 S. Coriani,  S. Dasgupta,  A. L. Dempwolff,  M. Diedenhofen,  Hainam Do,  
 R. G. Edgar,  Po-Tung Fang,  S. Faraji,  S. Fatehi,  Qingguo Feng,  
 J. Fosso-Tande,  J. Gayvert,  Qinghui Ge,  A. Ghysels,  G. Gidofalvi,  
 J. Gomes,  J. Gonthier,  A. Gunina,  D. Hait,  M. W. D. Hanson-Heine,  
 P. H. P. Harbach,  A. W. Hauser,  M. F. Herbst,  J. E. Herr,  
 E. G. Hohenstein,  Z. C. Holden,  Kerwin Hui,  B. C. Huynh,  T.-C. Jagau,  
 Hyunjun Ji,  B. Kaduk,  K. Khistyaev,  Jaehoon Kim,  P. Klunzinger,  K. Koh,  
 D. Kosenkov,  L. Koulias,  T. Kowalczyk,  C. M. Krauter,  A. Kunitsa,  
 Ka Un Lao,  A. Laurent,  K. V. Lawler,  Joonho Lee,  D. Lefrancois,  
 S. Lehtola,  D. S. Levine,  Yi-Pei Li,  You-Sheng Lin,  Fenglai Liu,  
 Kuan-Yu Liu,  E. Livshits,  M. Loipersberger,  A. Luenser,  P. Manohar,  
 E. Mansoor,  S. F. Manzer,  Shan-Ping Mao,  Yuezhi Mao,  N. Mardirossian,  
 A. V. Marenich,  T. Markovich,  L. A. Martinez-Martinez,  S. A. Maurer,  
 N. J. Mayhall,  S. C. McKenzie,  J.-M. Mewes,  P. Morgante,  A. F. Morrison,  
 J. W. Mullinax,  K. Nanda,  T. S. Nguyen-Beck,  R. Olivares-Amaya,  
 K. J. Oosterbaan,  J. A. Parkhill,  S. K. Paul,  F. Pavosevic,  Zheng Pei,  
 T. M. Perrine,  F. Plasser,  P. Pokhilko,  S. Prager,  A. Prociuk,  
 E. Ramos,  B. Rana,  D. R. Rehn,  F. Rob,  M. Scheurer,  M. Schneider,  
 N. Sergueev,  S. M. Sharada,  S. Sharma,  D. W. Small,  T. Stauch,  
 C. J. Stein,  T. Stein,  Yu-Chuan Su,  S. P. Veccham,  Zhen Tao,  
 A. J. W. Thom,  A. Tkatchenko,  T. Tsuchimochi,  N. M. Tubman,  L. Vogt,  
 M. L. Vidal,  O. Vydrov,  M. A. Watson,  J. Wenzel,  M. de Wergifosse,  
 T. A. Wesolowski,  A. White,  J. Witte,  A. Yamada,  Jun Yang,  K. Yao,  
 S. Yeganeh,  S. R. Yost,  Zhi-Qiang You,  A. Zech,  Igor Ying Zhang,  
 Xing Zhang,  Yan Zhao,  Ying Zhu,  B. R. Brooks,  G. K. L. Chan,  
 C. J. Cramer,  M. S. Gordon,  W. J. Hehre,  A. Klamt,  M. W. Schmidt,  
 C. D. Sherrill,  D. G. Truhlar,  A. Aspuru-Guzik,  R. Baer,  A. T. Bell,  
 N. A. Besley,  Jeng-Da Chai,  A. E. DePrince, III,  R. A. DiStasio Jr.,  
 A. Dreuw,  B. D. Dunietz,  T. R. Furlani,  Chao-Ping Hsu,  Yousung Jung,  
 Jing Kong,  D. S. Lambrecht,  WanZhen Liang,  C. Ochsenfeld,  
 V. A. Rassolov,  L. V. Slipchenko,  J. E. Subotnik,  T. Van Voorhis,  
 J. M. Herbert,  A. I. Krylov,  P. M. W. Gill,  M. Head-Gordon

 Contributors to earlier versions of Q-Chem not listed above: 
 R. D. Adamson,  B. Austin,  J. Baker,  G. J. O. Beran,  K. Brandhorst,  
 S. T. Brown,  E. F. C. Byrd,  A. K. Chakraborty,  C.-L. Cheng,  
 Siu Hung Chien,  D. M. Chipman,  D. L. Crittenden,  H. Dachsel,  
 R. J. Doerksen,  A. D. Dutoi,  L. Fusti-Molnar,  W. A. Goddard III,  
 A. Golubeva-Zadorozhnaya,  S. R. Gwaltney,  G. Hawkins,  A. Heyden,  
 S. Hirata,  G. Kedziora,  F. J. Keil,  C. Kelley,  Jihan Kim,  R. A. King,  
 R. Z. Khaliullin,  P. P. Korambath,  W. Kurlancheek,  A. M. Lee,  M. S. Lee,  
 S. V. Levchenko,  Ching Yeh Lin,  D. Liotard,  R. C. Lochan,  I. Lotan,  
 P. E. Maslen,  N. Nair,  D. P. O'Neill,  D. Neuhauser,  E. Neuscamman,  
 C. M. Oana,  R. Olson,  B. Peters,  R. Peverati,  P. A. Pieniazek,  
 Y. M. Rhee,  J. Ritchie,  M. A. Rohrdanz,  E. Rosta,  N. J. Russ,  
 H. F. Schaefer III,  N. E. Schultz,  N. Shenvi,  A. C. Simmonett,  A. Sodt,  
 D. Stuck,  K. S. Thanthiriwatte,  V. Vanovschi,  Tao Wang,  A. Warshel,  
 C. F. Williams,  Q. Wu,  X. Xu,  W. Zhang

 Please cite Q-Chem as follows:
 Y. Shao et al., Mol. Phys. 113, 184-215 (2015)
 DOI: 10.1080/00268976.2014.952696

 Q-Chem 5.3.0 for Intel X86 EM64T Linux

 Parts of Q-Chem use Armadillo 9.800.1 (Horizon Scraper).
 http://arma.sourceforge.net/

 Q-Chem begins on Mon Jul 13 15:50:29 2020  

Host: centos77-c5
0

     Scratch files written to /tmp/29025.centos77-h1/qchem55266//
Processing $rem in /opt/qchem-5.3.0-intel2020u1//config/preferences:
Processing $rem in /home/shihchengli/.qchemrc:

Checking the input file for inconsistencies... 	...done.

--------------------------------------------------------------
User input:
--------------------------------------------------------------
$rem
   JOBTYPE  sp
   EXCHANGE   omegaB97X-D
   BASIS   6-311+G(2df,2pd)
   UNRESTRICTED   True
   max_scf_cycles   250
   geom_opt_max_cycles   1500
   basis2 6-31G*
   scf_algorithm rca_diis
   SYM_IGNORE  TRUE
   print_input   true
   geom_opt_dmax   80
   pop_mulliken false
   XC_GRID 000075000302
$end

$molecule
0 3
N       0.6867756910     1.2168630517     2.4761453543
O       0.3909027711     2.1739908941     1.8478056666
O       1.5975066238     0.9853805251     3.1998776489
N       0.0094991914     -1.1533651435     3.1781185138
O       -0.4470885334     -1.3274451046     4.1269895796
O       -0.2926046138     0.1995648871     2.2713631267
$end
--------------------------------------------------------------
 ----------------------------------------------------------------
             Standard Nuclear Orientation (Angstroms)
    I     Atom           X                Y                Z
 ----------------------------------------------------------------
    1      N       0.6867756910     1.2168630517     2.4761453543
    2      O       0.3909027711     2.1739908941     1.8478056666
    3      O       1.5975066238     0.9853805251     3.1998776489
    4      N       0.0094991914    -1.1533651435     3.1781185138
    5      O      -0.4470885334    -1.3274451046     4.1269895796
    6      O      -0.2926046138     0.1995648871     2.2713631267
 ----------------------------------------------------------------
 Nuclear Repulsion Energy =         234.18222420 hartrees
 There are       24 alpha and       22 beta electrons
 Requested basis set is 6-311+G(2df,2pd)
 There are 48 shells and 204 basis functions

 Total QAlloc Memory Limit   2000 MB
 Mega-Array Size       188 MB
 MEM_STATIC part       192 MB

                       Distance Matrix (Angstroms)
             N (  1)   O (  2)   O (  3)   N (  4)   O (  5)
   O (  2)  1.182559
   O (  3)  1.186087  2.167207
   N (  4)  2.563094  3.603679  2.663921
   O (  5)  3.237968  4.261099  3.223208  1.067301
   O (  6)  1.426891  2.131887  2.247702  1.656470  2.408106
 
 A cutoff of  1.0D-09 yielded   1026 shell pairs
 There are     19138 function pairs (     25125 Cartesian)
 Smallest overlap matrix eigenvalue = 6.05E-04

 Scale SEOQF with 1.000000e-01/1.000000e-01/1.000000e-01

 Standard Electronic Orientation quadrupole field applied
 Nucleus-field energy     =    -0.0000000362 hartrees
 Requested basis set is 6-31G(d)
 There are 24 shells and 84 basis functions
 A cutoff of  1.0D-09 yielded    268 shell pairs
 There are      3534 function pairs (      4062 Cartesian)
 Smallest overlap matrix eigenvalue = 4.80E-03
 Guess from superposition of atomic densities
 Warning:  Energy on first SCF cycle will be non-variational
 SAD guess density has 46.000000 electrons
 Long-range K will be added via erf
 Coulomb attenuation parameter = 0.2 bohr**(-1)
 An unrestricted hybrid HF-DFT SCF calculation will be
 performed using Relaxed Constraint Minimization + Pulay DIIS
 Exchange:     0.2220 Hartree-Fock + 1.0000 wB97X-D + LR-HF
 Correlation:  1.0000 wB97X-D
 Using Euler-Maclaurin-Lebedev (75,302) quadrature formula
 Dispersion:   Grimme D
 SCF converges when DIIS error is below 1.0E-04
 using 6 threads for integral computing
 -------------------------------------------------------
 OpenMP Integral computing Module                
 Release: version 1.0, May 2013, Q-Chem Inc. Pittsburgh 
 -------------------------------------------------------
 using 6 threads for integral computing
 -------------------------------------------------------
 OpenMP Integral computing Module                
 Release: version 1.0, May 2013, Q-Chem Inc. Pittsburgh 
 -------------------------------------------------------
 ---------------------------------------
  Cycle       Energy         DIIS Error
 ---------------------------------------
    1    -411.3145213569      9.55E-02
    2    -409.6491224299      1.90E-02
    3    -409.7487335881      3.88E-03
    4    -409.8882178744      3.85E-03
    5    -409.8925707257      5.27E-04 Done RCA. Switching to DIIS
    6    -409.8985310701      3.80E-04
    7    -409.8988416550      9.97E-05 Convergence criterion met
 ---------------------------------------
 <S^2> = 2.0114
 SCF time:  CPU 13.14 s  wall 2.20 s
 SCF   energy in the small basis set = -409.89884165
 Total energy in the small basis set = -409.89884165
 ----------------------------------------------------
  Cycle       Energy    
 ----------------------------------------------------
    1     -41.8696248142     -4.19E+01
 Long-range K will be added via erf
 Coulomb attenuation parameter = 0.2 bohr**(-1)
 An unrestricted hybrid HF-DFT SCF calculation will be
 performed using Relaxed Constraint Minimization + Pulay DIIS
 Exchange:     0.2220 Hartree-Fock + 1.0000 wB97X-D + LR-HF
 Correlation:  1.0000 wB97X-D
 Using Euler-Maclaurin-Lebedev (75,302) quadrature formula
 Dispersion:   Grimme D
 SCF converges when DIIS error is below 1.0E-05
 Basis2 calculation detected. Using small basis as guess for larger.
 SCFMinFind is unable to tell whether the solution found is close.
 Resetting ReadMinima to 0 and attempting to follow guess.
 SCFMinFind following SCF Guess.
 using 6 threads for integral computing
 -------------------------------------------------------
 OpenMP Integral computing Module                
 Release: version 1.0, May 2013, Q-Chem Inc. Pittsburgh 
 -------------------------------------------------------
 using 6 threads for integral computing
 -------------------------------------------------------
 OpenMP Integral computing Module                
 Release: version 1.0, May 2013, Q-Chem Inc. Pittsburgh 
 -------------------------------------------------------
 ---------------------------------------
  Cycle       Energy         DIIS Error
 ---------------------------------------
    1    -409.9968257355      8.00E-03
    2    -410.0129014975      3.88E-03
    3    -410.0314890783      9.41E-04 Done RCA. Switching to DIIS
    4    -410.0574734790      9.37E-04
    5    -410.0603591617      1.94E-04
    6    -410.0606332954      7.17E-05
    7    -410.0607574806      4.57E-05
    8    -410.0608000287      1.81E-05
    9    -410.0608175564      7.51E-06 Convergence criterion met
 ---------------------------------------
 <S^2> = 2.0132
 SCF time:  CPU 54.82 s  wall 9.17 s
 SCF   energy in the final basis set = -410.06081756
 Total energy in the final basis set = -410.06081756
 
 --------------------------------------------------------------
 
                    Orbital Energies (a.u.)
 --------------------------------------------------------------
 
 Alpha MOs
 -- Occupied --
-19.3999 -19.3958 -19.3472 -19.3419 -14.7675 -14.6013  -1.4519  -1.4374
 -1.2567  -1.2013  -0.8580  -0.7723  -0.7220  -0.7150  -0.7000  -0.6744
 -0.6653  -0.6438  -0.4982  -0.4921  -0.4613  -0.4554  -0.4319  -0.3014
 -- Virtual --
 -0.0179   0.0362   0.0774   0.1128   0.1265   0.1347   0.1385   0.1699
  0.1767   0.1860   0.2284   0.2441   0.2492   0.2681   0.2729   0.2922
  0.3072   0.3283   0.3438   0.3464   0.3531   0.3630   0.3697   0.3973
  0.4109   0.4409   0.4465   0.4628   0.5329   0.5808   0.7467   0.7694
  0.8175   0.8241   0.8678   0.8817   0.9360   0.9506   0.9875   1.0126
  1.0286   1.0559   1.0608   1.0811   1.0846   1.0858   1.1226   1.1358
  1.1430   1.1652   1.1698   1.1792   1.2276   1.2470   1.2773   1.3256
  1.4510   1.4641   1.5134   1.5518   1.5722   1.5907   1.6090   1.6386
  1.6634   1.7086   1.7153   1.7924   1.8283   1.9071   1.9337   1.9608
  2.0396   2.1551   2.2298   2.2757   2.3429   2.3807   2.4755   2.5391
  2.5538   2.6160   2.6972   2.8173   3.5022   3.5353   3.5962   3.6277
  3.6475   3.6644   3.6733   3.7034   3.7277   3.7514   3.7936   3.8689
  4.0228   4.0313   4.0542   4.1641   4.1906   4.4220   4.4485   4.4842
  4.4964   4.5196   4.5862   4.6552   4.6617   4.7200   4.7388   4.7883
  4.8887   4.9894   5.0021   5.0101   5.0287   5.0353   5.0484   5.0507
  5.0735   5.0886   5.1069   5.1243   5.1305   5.1648   5.1879   5.2007
  5.2176   5.2969   5.3186   5.3909   5.4074   5.4379   5.4873   5.5555
  5.5711   5.6613   5.6771   5.6990   5.8326   5.8605   6.0051   6.1480
  6.3424   6.5463   6.6838   6.7292   6.7445   6.7696   6.7907   6.8301
  6.8702   6.8811   6.9288   6.9974   7.0412   7.1048   7.1124   7.1687
  7.2089   7.2648   7.2733   7.3120   7.3189   7.3594   7.5663   7.5870
  7.6734   7.8123   7.8460   7.9079   8.0120   8.3033  36.1335  36.1747
 50.0007  50.2481  50.2670  50.3856
 
 Beta MOs
 -- Occupied --
-19.3844 -19.3804 -19.3449 -19.3423 -14.7671 -14.5834  -1.4368  -1.4158
 -1.2543  -1.1624  -0.8169  -0.7384  -0.7121  -0.7045  -0.6701  -0.6352
 -0.6120  -0.5900  -0.4732  -0.4652  -0.4600  -0.4443
 -- Virtual --
 -0.1335  -0.0155   0.0240   0.0825   0.0903   0.1214   0.1387   0.1437
  0.1451   0.1736   0.1823   0.1919   0.2301   0.2493   0.2533   0.2701
  0.2765   0.2952   0.3166   0.3306   0.3448   0.3490   0.3553   0.3651
  0.3722   0.4018   0.4166   0.4435   0.4496   0.4683   0.5391   0.6001
  0.7578   0.7775   0.8369   0.8444   0.8784   0.8883   0.9390   0.9589
  1.0002   1.0229   1.0340   1.0708   1.0743   1.0908   1.0936   1.1008
  1.1296   1.1456   1.1495   1.1722   1.1815   1.1945   1.2418   1.2579
  1.2988   1.3418   1.4643   1.4784   1.5185   1.5561   1.5756   1.5994
  1.6273   1.6612   1.6761   1.7264   1.7347   1.7963   1.8363   1.9181
  1.9386   1.9762   2.0597   2.1623   2.2478   2.2876   2.3578   2.3925
  2.4909   2.5421   2.5603   2.6294   2.7068   2.8218   3.5286   3.5707
  3.6069   3.6442   3.6631   3.6699   3.7073   3.7127   3.7408   3.7656
  3.8571   3.8884   4.0254   4.0383   4.0663   4.1993   4.2152   4.4251
  4.4577   4.4910   4.5076   4.5630   4.6172   4.6621   4.6898   4.7338
  4.7446   4.8400   4.9429   5.0183   5.0201   5.0264   5.0476   5.0503
  5.0618   5.0658   5.0862   5.0960   5.1148   5.1330   5.1573   5.1827
  5.2177   5.2316   5.2438   5.3261   5.3378   5.4076   5.4124   5.4551
  5.4989   5.5619   5.5918   5.6836   5.6989   5.7263   5.8402   5.8682
  6.0237   6.1874   6.3565   6.5481   6.6963   6.7721   6.7860   6.7988
  6.8022   6.8378   6.8835   6.9142   6.9314   7.0133   7.0713   7.1216
  7.1440   7.1708   7.2293   7.2861   7.3018   7.3335   7.3373   7.3758
  7.5740   7.6101   7.7055   7.8232   7.8662   7.9170   8.0379   8.3060
 36.1342  36.1951  50.0171  50.2496  50.2677  50.3994
 --------------------------------------------------------------
 
 -----------------------------------------------------------------
                    Cartesian Multipole Moments
 -----------------------------------------------------------------
    Charge (ESU x 10^10)
                -0.0000
    Dipole Moment (Debye)
         X      -0.3675      Y      -1.0508      Z       0.3489
       Tot       1.1666
    Quadrupole Moments (Debye-Ang)
        XX     -33.0031     XY      -1.0337     YY     -32.8289
        XZ      -2.2819     YZ      -1.9861     ZZ     -30.3681
    Octopole Moments (Debye-Ang^2)
       XXX     -34.3735    XXY     -13.4217    XYY     -11.7396
       YYY     -43.2442    XXZ     -95.6259    XYZ      -4.3184
       YYZ     -89.1078    XZZ     -19.2700    YZZ     -14.7342
       ZZZ    -267.1996
    Hexadecapole Moments (Debye-Ang^3)
      XXXX    -139.2431   XXXY     -63.0020   XXYY     -83.2212
      XYYY     -65.2971   YYYY    -358.9322   XXXZ     -93.4744
      XXYZ     -16.6573   XYYZ     -30.0147   YYYZ     -46.7869
      XXZZ    -319.7151   XYZZ     -36.7221   YYZZ    -324.2250
      XZZZ    -110.9780   YZZZ     -30.4251   ZZZZ   -1663.4801
 -----------------------------------------------------------------
Archival summary:
1\1\centos77-c5\SP\ProcedureUnspecified\BasisUnspecified\42(3)\shihchen\MonJul1315:50:422020MonJul1315:50:422020\0\\#,ProcedureUnspecified,BasisUnspecified,\\0,3\N\O,1,1.18256\O,1,1.18609,2,132.399\O,1,1.42689,2,109.211,3,179.705,0\N,4,1.65647,1,112.245,2,-177.185,0\O,5,1.0673,4,122.81,1,95.6949,0\\\@

 Total job time:  13.70s(wall), 71.98s(cpu) 
 Mon Jul 13 15:50:42 2020

        *************************************************************
        *                                                           *
        *  Thank you very much for using Q-Chem.  Have a nice day.  *
        *                                                           *
        *************************************************************


