                  Welcome to Q-Chem
     A Quantum Leap Into The Future Of Chemistry


 Q-Chem 5.3 (devel), Q-Chem, Inc., Pleasanton, CA (2020)

 Yihan Shao,  Zhengting Gan,  E. Epifanovsky,  A. T. B. Gilbert,  M. Wormit,  
 J. Kussmann,  A. W. Lange,  A. Behn,  Jia Deng,  Xintian Feng,  D. Ghosh,  
 M. Goldey,  P. R. Horn,  L. D. Jacobson,  I. Kaliman,  T. Kus,  A. Landau,  
 Jie Liu,  E. I. Proynov,  R. M. Richard,  R. P. Steele,  E. J. Sundstrom,  
 H. L. Woodcock III,  P. M. Zimmerman,  D. Zuev,  B. Alam,  B. Albrecht,  
 E. Alguire,  S. A. Baeppler,  D. Barton,  Z. Benda,  Y. A. Bernard,  
 E. J. Berquist,  K. B. Bravaya,  H. Burton,  K. Carter-Fenk,  D. Casanova,  
 Chun-Min Chang,  Yunqing Chen,  A. Chien,  K. D. Closser,  M. P. Coons,  
 S. Coriani,  S. Dasgupta,  A. L. Dempwolff,  M. Diedenhofen,  Hainam Do,  
 R. G. Edgar,  Po-Tung Fang,  S. Faraji,  S. Fatehi,  Qingguo Feng,  
 J. Fosso-Tande,  J. Gayvert,  Qinghui Ge,  A. Ghysels,  G. Gidofalvi,  
 J. Gomes,  J. Gonthier,  A. Gunina,  D. Hait,  M. W. D. Hanson-Heine,  
 P. H. P. Harbach,  A. W. Hauser,  M. F. Herbst,  J. E. Herr,  
 E. G. Hohenstein,  Z. C. Holden,  Kerwin Hui,  B. C. Huynh,  T.-C. Jagau,  
 Hyunjun Ji,  B. Kaduk,  K. Khistyaev,  Jaehoon Kim,  P. Klunzinger,  K. Koh,  
 D. Kosenkov,  L. Koulias,  T. Kowalczyk,  C. M. Krauter,  A. Kunitsa,  
 Ka Un Lao,  A. Laurent,  K. V. Lawler,  Joonho Lee,  D. Lefrancois,  
 S. Lehtola,  D. S. Levine,  Yi-Pei Li,  You-Sheng Lin,  Fenglai Liu,  
 Kuan-Yu Liu,  E. Livshits,  M. Loipersberger,  A. Luenser,  P. Manohar,  
 E. Mansoor,  S. F. Manzer,  Shan-Ping Mao,  Yuezhi Mao,  N. Mardirossian,  
 A. V. Marenich,  T. Markovich,  L. A. Martinez-Martinez,  S. A. Maurer,  
 N. J. Mayhall,  S. C. McKenzie,  J.-M. Mewes,  P. Morgante,  A. F. Morrison,  
 J. W. Mullinax,  K. Nanda,  T. S. Nguyen-Beck,  R. Olivares-Amaya,  
 K. J. Oosterbaan,  J. A. Parkhill,  S. K. Paul,  F. Pavosevic,  Zheng Pei,  
 T. M. Perrine,  F. Plasser,  P. Pokhilko,  S. Prager,  A. Prociuk,  
 E. Ramos,  B. Rana,  D. R. Rehn,  F. Rob,  M. Scheurer,  M. Schneider,  
 N. Sergueev,  S. M. Sharada,  S. Sharma,  D. W. Small,  T. Stauch,  
 C. J. Stein,  T. Stein,  Yu-Chuan Su,  S. P. Veccham,  Zhen Tao,  
 A. J. W. Thom,  A. Tkatchenko,  T. Tsuchimochi,  N. M. Tubman,  L. Vogt,  
 M. L. Vidal,  O. Vydrov,  M. A. Watson,  J. Wenzel,  M. de Wergifosse,  
 T. A. Wesolowski,  A. White,  J. Witte,  A. Yamada,  Jun Yang,  K. Yao,  
 S. Yeganeh,  S. R. Yost,  Zhi-Qiang You,  A. Zech,  Igor Ying Zhang,  
 Xing Zhang,  Yan Zhao,  Ying Zhu,  B. R. Brooks,  G. K. L. Chan,  
 C. J. Cramer,  M. S. Gordon,  W. J. Hehre,  A. Klamt,  M. W. Schmidt,  
 C. D. Sherrill,  D. G. Truhlar,  A. Aspuru-Guzik,  R. Baer,  A. T. Bell,  
 N. A. Besley,  Jeng-Da Chai,  A. E. DePrince, III,  R. A. DiStasio Jr.,  
 A. Dreuw,  B. D. Dunietz,  T. R. Furlani,  Chao-Ping Hsu,  Yousung Jung,  
 Jing Kong,  D. S. Lambrecht,  WanZhen Liang,  C. Ochsenfeld,  
 V. A. Rassolov,  L. V. Slipchenko,  J. E. Subotnik,  T. Van Voorhis,  
 J. M. Herbert,  A. I. Krylov,  P. M. W. Gill,  M. Head-Gordon

 Contributors to earlier versions of Q-Chem not listed above: 
 R. D. Adamson,  B. Austin,  J. Baker,  G. J. O. Beran,  K. Brandhorst,  
 S. T. Brown,  E. F. C. Byrd,  A. K. Chakraborty,  C.-L. Cheng,  
 Siu Hung Chien,  D. M. Chipman,  D. L. Crittenden,  H. Dachsel,  
 R. J. Doerksen,  A. D. Dutoi,  L. Fusti-Molnar,  W. A. Goddard III,  
 A. Golubeva-Zadorozhnaya,  S. R. Gwaltney,  G. Hawkins,  A. Heyden,  
 S. Hirata,  G. Kedziora,  F. J. Keil,  C. Kelley,  Jihan Kim,  R. A. King,  
 R. Z. Khaliullin,  P. P. Korambath,  W. Kurlancheek,  A. M. Lee,  M. S. Lee,  
 S. V. Levchenko,  Ching Yeh Lin,  D. Liotard,  R. C. Lochan,  I. Lotan,  
 P. E. Maslen,  N. Nair,  D. P. O'Neill,  D. Neuhauser,  E. Neuscamman,  
 C. M. Oana,  R. Olson,  B. Peters,  R. Peverati,  P. A. Pieniazek,  
 Y. M. Rhee,  J. Ritchie,  M. A. Rohrdanz,  E. Rosta,  N. J. Russ,  
 H. F. Schaefer III,  N. E. Schultz,  N. Shenvi,  A. C. Simmonett,  A. Sodt,  
 D. Stuck,  K. S. Thanthiriwatte,  V. Vanovschi,  Tao Wang,  A. Warshel,  
 C. F. Williams,  Q. Wu,  X. Xu,  W. Zhang

 Please cite Q-Chem as follows:
 Y. Shao et al., Mol. Phys. 113, 184-215 (2015)
 DOI: 10.1080/00268976.2014.952696

 Q-Chem 5.3.0 for Intel X86 EM64T Linux

 Parts of Q-Chem use Armadillo 9.800.1 (Horizon Scraper).
 http://arma.sourceforge.net/

 Q-Chem begins on Mon Jul 13 15:42:47 2020  

Host: centos77-c5
0

     Scratch files written to /tmp/29025.centos77-h1/qchem50101//
Processing $rem in /opt/qchem-5.3.0-intel2020u1//config/preferences:
Processing $rem in /home/shihchengli/.qchemrc:

Checking the input file for inconsistencies... 	...done.

--------------------------------------------------------------
User input:
--------------------------------------------------------------
$rem
   JOBTYPE  sp
   EXCHANGE   omegaB97X-D
   BASIS   6-311+G(2df,2pd)
   UNRESTRICTED   True
   max_scf_cycles   250
   geom_opt_max_cycles   1500
   basis2 6-31G*
   scf_algorithm rca_diis
   SYM_IGNORE  TRUE
   print_input   true
   geom_opt_dmax   80
   pop_mulliken false
   XC_GRID 000075000302
$end

$molecule
0 3
N       0.5981511716     1.1145042216     2.4678629927
O       0.4593450106     2.1571834176     1.9194898231
O       1.5690489495     1.0630756320     3.1210238442
N       0.0333612814     -1.1226498229     3.1418105682
O       -0.4863993031     -1.3361571139     4.1638010342
O       -0.2285159799     0.2190327755     2.2863116275
$end
--------------------------------------------------------------
 ----------------------------------------------------------------
             Standard Nuclear Orientation (Angstroms)
    I     Atom           X                Y                Z
 ----------------------------------------------------------------
    1      N       0.5981511716     1.1145042216     2.4678629927
    2      O       0.4593450106     2.1571834176     1.9194898231
    3      O       1.5690489495     1.0630756320     3.1210238442
    4      N       0.0333612814    -1.1226498229     3.1418105682
    5      O      -0.4863993031    -1.3361571139     4.1638010342
    6      O      -0.2285159799     0.2190327755     2.2863116275
 ----------------------------------------------------------------
 Nuclear Repulsion Energy =         238.83703120 hartrees
 There are       24 alpha and       22 beta electrons
 Requested basis set is 6-311+G(2df,2pd)
 There are 48 shells and 204 basis functions

 Total QAlloc Memory Limit   2000 MB
 Mega-Array Size       188 MB
 MEM_STATIC part       192 MB

                       Distance Matrix (Angstroms)
             N (  1)   O (  2)   O (  3)   N (  4)   O (  5)
   O (  2)  1.186238
   O (  3)  1.171284  1.967790
   N (  4)  2.403758  3.526023  2.671360
   O (  5)  3.171466  4.258497  3.326946  1.166277
   O (  6)  1.232156  2.089052  2.154157  1.612628  2.451548
 
 A cutoff of  1.0D-09 yielded   1035 shell pairs
 There are     19300 function pairs (     25319 Cartesian)
 Smallest overlap matrix eigenvalue = 5.24E-04

 Scale SEOQF with 1.000000e-01/1.000000e-01/1.000000e-01

 Standard Electronic Orientation quadrupole field applied
 Nucleus-field energy     =    -0.0000000363 hartrees
 Requested basis set is 6-31G(d)
 There are 24 shells and 84 basis functions
 A cutoff of  1.0D-09 yielded    268 shell pairs
 There are      3534 function pairs (      4062 Cartesian)
 Smallest overlap matrix eigenvalue = 4.62E-03
 Guess from superposition of atomic densities
 Warning:  Energy on first SCF cycle will be non-variational
 SAD guess density has 46.000000 electrons
 Long-range K will be added via erf
 Coulomb attenuation parameter = 0.2 bohr**(-1)
 An unrestricted hybrid HF-DFT SCF calculation will be
 performed using Relaxed Constraint Minimization + Pulay DIIS
 Exchange:     0.2220 Hartree-Fock + 1.0000 wB97X-D + LR-HF
 Correlation:  1.0000 wB97X-D
 Using Euler-Maclaurin-Lebedev (75,302) quadrature formula
 Dispersion:   Grimme D
 SCF converges when DIIS error is below 1.0E-04
 using 6 threads for integral computing
 -------------------------------------------------------
 OpenMP Integral computing Module                
 Release: version 1.0, May 2013, Q-Chem Inc. Pittsburgh 
 -------------------------------------------------------
 using 6 threads for integral computing
 -------------------------------------------------------
 OpenMP Integral computing Module                
 Release: version 1.0, May 2013, Q-Chem Inc. Pittsburgh 
 -------------------------------------------------------
 ---------------------------------------
  Cycle       Energy         DIIS Error
 ---------------------------------------
    1    -411.4876958948      9.75E-02
    2    -409.5790385141      2.08E-02
    3    -409.6860334154      6.32E-03
    4    -409.8529257223      6.95E-03
    5    -409.8656967648      8.95E-04 Done RCA. Switching to DIIS
    6    -409.8810970542      9.47E-04
    7    -409.8817126988      2.12E-04
    8    -409.8817907788      1.05E-04
    9    -409.8818183420      3.49E-05 Convergence criterion met
 ---------------------------------------
 <S^2> = 2.0138
 SCF time:  CPU 15.42 s  wall 2.59 s
 SCF   energy in the small basis set = -409.88181834
 Total energy in the small basis set = -409.88181834
 ----------------------------------------------------
  Cycle       Energy    
 ----------------------------------------------------
    1     -41.9044156001     -4.19E+01
 Long-range K will be added via erf
 Coulomb attenuation parameter = 0.2 bohr**(-1)
 An unrestricted hybrid HF-DFT SCF calculation will be
 performed using Relaxed Constraint Minimization + Pulay DIIS
 Exchange:     0.2220 Hartree-Fock + 1.0000 wB97X-D + LR-HF
 Correlation:  1.0000 wB97X-D
 Using Euler-Maclaurin-Lebedev (75,302) quadrature formula
 Dispersion:   Grimme D
 SCF converges when DIIS error is below 1.0E-05
 Basis2 calculation detected. Using small basis as guess for larger.
 SCFMinFind is unable to tell whether the solution found is close.
 Resetting ReadMinima to 0 and attempting to follow guess.
 SCFMinFind following SCF Guess.
 using 6 threads for integral computing
 -------------------------------------------------------
 OpenMP Integral computing Module                
 Release: version 1.0, May 2013, Q-Chem Inc. Pittsburgh 
 -------------------------------------------------------
 using 6 threads for integral computing
 -------------------------------------------------------
 OpenMP Integral computing Module                
 Release: version 1.0, May 2013, Q-Chem Inc. Pittsburgh 
 -------------------------------------------------------
 ---------------------------------------
  Cycle       Energy         DIIS Error
 ---------------------------------------
    1    -409.8934992888      8.79E-03
    2    -409.6889976464      9.48E-03
    3    -409.7790409905      4.23E-03
    4    -409.8862538099      3.19E-03
    5    -409.9378030296      1.29E-03
    6    -410.0155791298      2.27E-03
    7    -410.0235205322      5.22E-04 Done RCA. Switching to DIIS
    8    -410.0333797703      1.12E-03
    9    -410.0386152274      1.54E-04
   10    -410.0389282826      2.06E-04
   11    -410.0391447708      2.60E-04
   12    -410.0391080501      2.55E-04
   13    -410.0391450767      2.56E-04
   14    -410.0389911089      3.86E-04
   15    -410.0396998741      9.22E-05
   16    -410.0398173060      6.82E-05
   17    -410.0399942277      6.06E-05
   18    -410.0401109316      4.42E-05
   19    -410.0402106448      1.62E-05
   20    -410.0402289074      8.82E-06 Convergence criterion met
 ---------------------------------------
 <S^2> = 2.0161
 SCF time:  CPU 125.54 s  wall 20.97 s
 SCF   energy in the final basis set = -410.04022891
 Total energy in the final basis set = -410.04022891
 
 --------------------------------------------------------------
 
                    Orbital Energies (a.u.)
 --------------------------------------------------------------
 
 Alpha MOs
 -- Occupied --
-19.4404 -19.4048 -19.3311 -19.3169 -14.7757 -14.6260  -1.5008  -1.3784
 -1.2975  -1.2312  -0.9191  -0.7798  -0.7563  -0.7126  -0.7073  -0.6552
 -0.6376  -0.6260  -0.5212  -0.5174  -0.4683  -0.4457  -0.4140  -0.3469
 -- Virtual --
 -0.0120   0.0082   0.0865   0.1164   0.1320   0.1343   0.1689   0.1767
  0.1866   0.2233   0.2380   0.2438   0.2575   0.2671   0.2828   0.2907
  0.3061   0.3383   0.3396   0.3523   0.3572   0.3590   0.3796   0.3905
  0.4261   0.4356   0.4573   0.4814   0.4852   0.5215   0.7301   0.7615
  0.8007   0.8249   0.8612   0.9116   0.9176   0.9733   0.9763   1.0132
  1.0247   1.0425   1.0641   1.0732   1.0785   1.1031   1.1055   1.1257
  1.1359   1.1459   1.1566   1.1644   1.1975   1.2500   1.2924   1.3529
  1.4533   1.4973   1.5185   1.5610   1.5726   1.5966   1.6037   1.6479
  1.6555   1.6625   1.6914   1.7956   1.8476   1.9405   1.9731   2.0346
  2.1095   2.1444   2.1935   2.3147   2.3461   2.4388   2.4612   2.4979
  2.5741   2.5812   2.7922   2.8345   3.5061   3.5238   3.6089   3.6423
  3.6515   3.6860   3.7168   3.7433   3.7604   3.7812   3.8184   3.9308
  3.9697   4.0122   4.0593   4.2014   4.3146   4.4010   4.4552   4.4979
  4.5222   4.5560   4.5648   4.6359   4.6535   4.6874   4.6973   4.7693
  4.8457   4.9080   4.9917   4.9996   5.0208   5.0294   5.0486   5.0623
  5.0763   5.0957   5.1005   5.1337   5.1487   5.1618   5.1756   5.1951
  5.2068   5.2563   5.3008   5.3567   5.4119   5.4709   5.5198   5.5505
  5.6276   5.6701   5.7197   5.8757   5.9207   6.1579   6.3301   6.5273
  6.5711   6.6106   6.6537   6.6927   6.7229   6.7284   6.7369   6.7778
  6.8293   6.8414   6.8633   6.8988   6.9502   7.0840   7.1241   7.1669
  7.1939   7.2331   7.2655   7.3307   7.4503   7.5008   7.6016   7.6716
  7.6930   7.7734   7.9281   7.9941   8.0717   8.2618  35.9146  36.3645
 50.1439  50.1740  50.2155  50.3592
 
 Beta MOs
 -- Occupied --
-19.4292 -19.3877 -19.3259 -19.3163 -14.7758 -14.6080  -1.4918  -1.3426
 -1.2767  -1.2234  -0.8766  -0.7527  -0.7400  -0.7005  -0.6798  -0.6030
 -0.5929  -0.5630  -0.5041  -0.4868  -0.4419  -0.3958
 -- Virtual --
 -0.1762  -0.0107  -0.0043   0.0499   0.0900   0.1195   0.1354   0.1372
  0.1703   0.1805   0.1902   0.2241   0.2430   0.2482   0.2653   0.2694
  0.2851   0.2925   0.3130   0.3394   0.3417   0.3534   0.3594   0.3611
  0.3822   0.4032   0.4291   0.4476   0.4598   0.4871   0.4995   0.5301
  0.7407   0.7700   0.8130   0.8462   0.8746   0.9191   0.9226   0.9790
  0.9877   1.0194   1.0289   1.0584   1.0778   1.0813   1.0943   1.1078
  1.1189   1.1356   1.1492   1.1564   1.1649   1.1796   1.2083   1.2578
  1.3105   1.3666   1.4660   1.5079   1.5252   1.5707   1.5857   1.6159
  1.6209   1.6593   1.6627   1.6781   1.7005   1.8076   1.8650   1.9582
  1.9774   2.0456   2.1177   2.1627   2.2075   2.3198   2.3552   2.4490
  2.4756   2.5109   2.5808   2.5830   2.8033   2.8420   3.5388   3.5564
  3.6257   3.6564   3.6586   3.7027   3.7265   3.7680   3.7763   3.8266
  3.8554   3.9435   4.0002   4.0258   4.0701   4.2124   4.3200   4.4093
  4.4635   4.5058   4.5241   4.5632   4.5716   4.6510   4.6805   4.7145
  4.7498   4.8084   4.8930   4.9521   5.0064   5.0216   5.0535   5.0578
  5.0601   5.0758   5.0897   5.1128   5.1367   5.1494   5.1565   5.1821
  5.1958   5.2080   5.2255   5.2798   5.3068   5.3713   5.4340   5.4895
  5.5451   5.5688   5.6495   5.6862   5.7348   5.8820   5.9267   6.1858
  6.3514   6.5338   6.5806   6.6142   6.6953   6.7216   6.7439   6.7842
  6.7916   6.7954   6.8387   6.8493   6.8728   6.9123   6.9772   7.1034
  7.1476   7.1991   7.2117   7.2394   7.2814   7.3500   7.4639   7.5218
  7.6117   7.6873   7.7200   7.8013   7.9369   8.0048   8.0765   8.2690
 35.9362  36.3645  50.1558  50.1887  50.2190  50.3611
 --------------------------------------------------------------
 
 -----------------------------------------------------------------
                    Cartesian Multipole Moments
 -----------------------------------------------------------------
    Charge (ESU x 10^10)
                 0.0000
    Dipole Moment (Debye)
         X      -0.8851      Y      -1.3985      Z      -0.0390
       Tot       1.6555
    Quadrupole Moments (Debye-Ang)
        XX     -33.6993     XY      -1.7956     YY     -34.7345
        XZ      -3.7224     YZ      -2.3085     ZZ     -32.5734
    Octopole Moments (Debye-Ang^2)
       XXX     -35.3384    XXY     -13.8574    XYY     -12.4977
       YYY     -43.9613    XXZ     -97.8149    XYZ      -6.3574
       YYZ     -94.5937    XZZ     -23.4453    YZZ     -13.8894
       ZZZ    -277.5250
    Hexadecapole Moments (Debye-Ang^3)
      XXXX    -136.1681   XXXY     -65.3552   XXYY     -83.1097
      XYYY     -67.3531   YYYY    -361.2553   XXXZ     -92.2003
      XXYZ     -17.7006   XYYZ     -31.0166   YYYZ     -48.0138
      XXZZ    -325.5334   XYZZ     -42.4739   YYZZ    -340.0703
      XZZZ    -120.0884   YZZZ     -23.5550   ZZZZ   -1706.5068
 -----------------------------------------------------------------
Archival summary:
1\1\centos77-c5\SP\ProcedureUnspecified\BasisUnspecified\42(3)\shihchen\MonJul1315:43:132020MonJul1315:43:132020\0\\#,ProcedureUnspecified,BasisUnspecified,\\0,3\N\O,1,1.17128\O,1,1.18624,2,113.165\O,1,1.23216,2,127.329,3,178.242,0\N,4,1.61263,1,114.679,2,4.65923,0\O,5,1.16628,4,123.011,1,95.6829,0\\\@

 Total job time:  25.88s(wall), 145.05s(cpu) 
 Mon Jul 13 15:43:13 2020

        *************************************************************
        *                                                           *
        *  Thank you very much for using Q-Chem.  Have a nice day.  *
        *                                                           *
        *************************************************************


