                  Welcome to Q-Chem
     A Quantum Leap Into The Future Of Chemistry


 Q-Chem 5.3 (devel), Q-Chem, Inc., Pleasanton, CA (2020)

 Yihan Shao,  Zhengting Gan,  E. Epifanovsky,  A. T. B. Gilbert,  M. Wormit,  
 J. Kussmann,  A. W. Lange,  A. Behn,  Jia Deng,  Xintian Feng,  D. Ghosh,  
 M. Goldey,  P. R. Horn,  L. D. Jacobson,  I. Kaliman,  T. Kus,  A. Landau,  
 Jie Liu,  E. I. Proynov,  R. M. Richard,  R. P. Steele,  E. J. Sundstrom,  
 H. L. Woodcock III,  P. M. Zimmerman,  D. Zuev,  B. Alam,  B. Albrecht,  
 E. Alguire,  S. A. Baeppler,  D. Barton,  Z. Benda,  Y. A. Bernard,  
 E. J. Berquist,  K. B. Bravaya,  H. Burton,  K. Carter-Fenk,  D. Casanova,  
 Chun-Min Chang,  Yunqing Chen,  A. Chien,  K. D. Closser,  M. P. Coons,  
 S. Coriani,  S. Dasgupta,  A. L. Dempwolff,  M. Diedenhofen,  Hainam Do,  
 R. G. Edgar,  Po-Tung Fang,  S. Faraji,  S. Fatehi,  Qingguo Feng,  
 J. Fosso-Tande,  J. Gayvert,  Qinghui Ge,  A. Ghysels,  G. Gidofalvi,  
 J. Gomes,  J. Gonthier,  A. Gunina,  D. Hait,  M. W. D. Hanson-Heine,  
 P. H. P. Harbach,  A. W. Hauser,  M. F. Herbst,  J. E. Herr,  
 E. G. Hohenstein,  Z. C. Holden,  Kerwin Hui,  B. C. Huynh,  T.-C. Jagau,  
 Hyunjun Ji,  B. Kaduk,  K. Khistyaev,  Jaehoon Kim,  P. Klunzinger,  K. Koh,  
 D. Kosenkov,  L. Koulias,  T. Kowalczyk,  C. M. Krauter,  A. Kunitsa,  
 Ka Un Lao,  A. Laurent,  K. V. Lawler,  Joonho Lee,  D. Lefrancois,  
 S. Lehtola,  D. S. Levine,  Yi-Pei Li,  You-Sheng Lin,  Fenglai Liu,  
 Kuan-Yu Liu,  E. Livshits,  M. Loipersberger,  A. Luenser,  P. Manohar,  
 E. Mansoor,  S. F. Manzer,  Shan-Ping Mao,  Yuezhi Mao,  N. Mardirossian,  
 A. V. Marenich,  T. Markovich,  L. A. Martinez-Martinez,  S. A. Maurer,  
 N. J. Mayhall,  S. C. McKenzie,  J.-M. Mewes,  P. Morgante,  A. F. Morrison,  
 J. W. Mullinax,  K. Nanda,  T. S. Nguyen-Beck,  R. Olivares-Amaya,  
 K. J. Oosterbaan,  J. A. Parkhill,  S. K. Paul,  F. Pavosevic,  Zheng Pei,  
 T. M. Perrine,  F. Plasser,  P. Pokhilko,  S. Prager,  A. Prociuk,  
 E. Ramos,  B. Rana,  D. R. Rehn,  F. Rob,  M. Scheurer,  M. Schneider,  
 N. Sergueev,  S. M. Sharada,  S. Sharma,  D. W. Small,  T. Stauch,  
 C. J. Stein,  T. Stein,  Yu-Chuan Su,  S. P. Veccham,  Zhen Tao,  
 A. J. W. Thom,  A. Tkatchenko,  T. Tsuchimochi,  N. M. Tubman,  L. Vogt,  
 M. L. Vidal,  O. Vydrov,  M. A. Watson,  J. Wenzel,  M. de Wergifosse,  
 T. A. Wesolowski,  A. White,  J. Witte,  A. Yamada,  Jun Yang,  K. Yao,  
 S. Yeganeh,  S. R. Yost,  Zhi-Qiang You,  A. Zech,  Igor Ying Zhang,  
 Xing Zhang,  Yan Zhao,  Ying Zhu,  B. R. Brooks,  G. K. L. Chan,  
 C. J. Cramer,  M. S. Gordon,  W. J. Hehre,  A. Klamt,  M. W. Schmidt,  
 C. D. Sherrill,  D. G. Truhlar,  A. Aspuru-Guzik,  R. Baer,  A. T. Bell,  
 N. A. Besley,  Jeng-Da Chai,  A. E. DePrince, III,  R. A. DiStasio Jr.,  
 A. Dreuw,  B. D. Dunietz,  T. R. Furlani,  Chao-Ping Hsu,  Yousung Jung,  
 Jing Kong,  D. S. Lambrecht,  WanZhen Liang,  C. Ochsenfeld,  
 V. A. Rassolov,  L. V. Slipchenko,  J. E. Subotnik,  T. Van Voorhis,  
 J. M. Herbert,  A. I. Krylov,  P. M. W. Gill,  M. Head-Gordon

 Contributors to earlier versions of Q-Chem not listed above: 
 R. D. Adamson,  B. Austin,  J. Baker,  G. J. O. Beran,  K. Brandhorst,  
 S. T. Brown,  E. F. C. Byrd,  A. K. Chakraborty,  C.-L. Cheng,  
 Siu Hung Chien,  D. M. Chipman,  D. L. Crittenden,  H. Dachsel,  
 R. J. Doerksen,  A. D. Dutoi,  L. Fusti-Molnar,  W. A. Goddard III,  
 A. Golubeva-Zadorozhnaya,  S. R. Gwaltney,  G. Hawkins,  A. Heyden,  
 S. Hirata,  G. Kedziora,  F. J. Keil,  C. Kelley,  Jihan Kim,  R. A. King,  
 R. Z. Khaliullin,  P. P. Korambath,  W. Kurlancheek,  A. M. Lee,  M. S. Lee,  
 S. V. Levchenko,  Ching Yeh Lin,  D. Liotard,  R. C. Lochan,  I. Lotan,  
 P. E. Maslen,  N. Nair,  D. P. O'Neill,  D. Neuhauser,  E. Neuscamman,  
 C. M. Oana,  R. Olson,  B. Peters,  R. Peverati,  P. A. Pieniazek,  
 Y. M. Rhee,  J. Ritchie,  M. A. Rohrdanz,  E. Rosta,  N. J. Russ,  
 H. F. Schaefer III,  N. E. Schultz,  N. Shenvi,  A. C. Simmonett,  A. Sodt,  
 D. Stuck,  K. S. Thanthiriwatte,  V. Vanovschi,  Tao Wang,  A. Warshel,  
 C. F. Williams,  Q. Wu,  X. Xu,  W. Zhang

 Please cite Q-Chem as follows:
 Y. Shao et al., Mol. Phys. 113, 184-215 (2015)
 DOI: 10.1080/00268976.2014.952696

 Q-Chem 5.3.0 for Intel X86 EM64T Linux

 Parts of Q-Chem use Armadillo 9.800.1 (Horizon Scraper).
 http://arma.sourceforge.net/

 Q-Chem begins on Mon Jul 13 15:42:07 2020  

Host: centos77-c5
0

     Scratch files written to /tmp/29025.centos77-h1/qchem38446//
Processing $rem in /opt/qchem-5.3.0-intel2020u1//config/preferences:
Processing $rem in /home/shihchengli/.qchemrc:

Checking the input file for inconsistencies... 	...done.

--------------------------------------------------------------
User input:
--------------------------------------------------------------
$rem
   JOBTYPE  sp
   EXCHANGE   omegaB97X-D
   BASIS   6-311+G(2df,2pd)
   UNRESTRICTED   True
   max_scf_cycles   250
   geom_opt_max_cycles   1500
   basis2 6-31G*
   scf_algorithm rca_diis
   SYM_IGNORE  TRUE
   print_input   true
   geom_opt_dmax   80
   pop_mulliken false
   XC_GRID 000075000302
$end

$molecule
0 3
N       0.6405098127     1.1638992577     2.4757880262
O       0.4173171095     2.1720056716     1.8876855127
O       1.5920248303     1.0224829480     3.1547221645
N       0.0352314786     -1.1375555732     3.1428144226
O       -0.4862395193     -1.3320859235     4.1689553073
O       -0.2538525817     0.2062427293     2.2703344567
$end
--------------------------------------------------------------
 ----------------------------------------------------------------
             Standard Nuclear Orientation (Angstroms)
    I     Atom           X                Y                Z
 ----------------------------------------------------------------
    1      N       0.6405098127     1.1638992577     2.4757880262
    2      O       0.4173171095     2.1720056716     1.8876855127
    3      O       1.5920248303     1.0224829480     3.1547221645
    4      N       0.0352314786    -1.1375555732     3.1428144226
    5      O      -0.4862395193    -1.3320859235     4.1689553073
    6      O      -0.2538525817     0.2062427293     2.2703344567
 ----------------------------------------------------------------
 Nuclear Repulsion Energy =         234.88547085 hartrees
 There are       24 alpha and       22 beta electrons
 Requested basis set is 6-311+G(2df,2pd)
 There are 48 shells and 204 basis functions

 Total QAlloc Memory Limit   2000 MB
 Mega-Array Size       188 MB
 MEM_STATIC part       192 MB

                       Distance Matrix (Angstroms)
             N (  1)   O (  2)   O (  3)   N (  4)   O (  5)
   O (  2)  1.188258
   O (  3)  1.177426  2.075264
   N (  4)  2.471433  3.560131  2.662614
   O (  5)  3.219677  4.277764  3.300280  1.167364
   O (  6)  1.326349  2.112135  2.203555  1.628062  2.454632
 
 A cutoff of  1.0D-09 yielded   1030 shell pairs
 There are     19230 function pairs (     25235 Cartesian)
 Smallest overlap matrix eigenvalue = 6.25E-04

 Scale SEOQF with 1.000000e-01/1.000000e-01/1.000000e-01

 Standard Electronic Orientation quadrupole field applied
 Nucleus-field energy     =    -0.0000000363 hartrees
 Requested basis set is 6-31G(d)
 There are 24 shells and 84 basis functions
 A cutoff of  1.0D-09 yielded    268 shell pairs
 There are      3534 function pairs (      4062 Cartesian)
 Smallest overlap matrix eigenvalue = 5.15E-03
 Guess from superposition of atomic densities
 Warning:  Energy on first SCF cycle will be non-variational
 SAD guess density has 46.000000 electrons
 Long-range K will be added via erf
 Coulomb attenuation parameter = 0.2 bohr**(-1)
 An unrestricted hybrid HF-DFT SCF calculation will be
 performed using Relaxed Constraint Minimization + Pulay DIIS
 Exchange:     0.2220 Hartree-Fock + 1.0000 wB97X-D + LR-HF
 Correlation:  1.0000 wB97X-D
 Using Euler-Maclaurin-Lebedev (75,302) quadrature formula
 Dispersion:   Grimme D
 SCF converges when DIIS error is below 1.0E-04
 using 6 threads for integral computing
 -------------------------------------------------------
 OpenMP Integral computing Module                
 Release: version 1.0, May 2013, Q-Chem Inc. Pittsburgh 
 -------------------------------------------------------
 using 6 threads for integral computing
 -------------------------------------------------------
 OpenMP Integral computing Module                
 Release: version 1.0, May 2013, Q-Chem Inc. Pittsburgh 
 -------------------------------------------------------
 ---------------------------------------
  Cycle       Energy         DIIS Error
 ---------------------------------------
    1    -411.2344321324      9.22E-02
    2    -409.6330074948      2.01E-02
    3    -409.7391290574      5.18E-03
    4    -409.8963293341      5.57E-03
    5    -409.9048071392      6.78E-04 Done RCA. Switching to DIIS
    6    -409.9154913066      6.00E-04
    7    -409.9158568332      1.92E-04
    8    -409.9159510760      7.88E-05 Convergence criterion met
 ---------------------------------------
 <S^2> = 2.0145
 SCF time:  CPU 14.25 s  wall 2.39 s
 SCF   energy in the small basis set = -409.91595108
 Total energy in the small basis set = -409.91595108
 ----------------------------------------------------
  Cycle       Energy    
 ----------------------------------------------------
    1     -41.8237075023     -4.18E+01
 Long-range K will be added via erf
 Coulomb attenuation parameter = 0.2 bohr**(-1)
 An unrestricted hybrid HF-DFT SCF calculation will be
 performed using Relaxed Constraint Minimization + Pulay DIIS
 Exchange:     0.2220 Hartree-Fock + 1.0000 wB97X-D + LR-HF
 Correlation:  1.0000 wB97X-D
 Using Euler-Maclaurin-Lebedev (75,302) quadrature formula
 Dispersion:   Grimme D
 SCF converges when DIIS error is below 1.0E-05
 Basis2 calculation detected. Using small basis as guess for larger.
 SCFMinFind is unable to tell whether the solution found is close.
 Resetting ReadMinima to 0 and attempting to follow guess.
 SCFMinFind following SCF Guess.
 using 6 threads for integral computing
 -------------------------------------------------------
 OpenMP Integral computing Module                
 Release: version 1.0, May 2013, Q-Chem Inc. Pittsburgh 
 -------------------------------------------------------
 using 6 threads for integral computing
 -------------------------------------------------------
 OpenMP Integral computing Module                
 Release: version 1.0, May 2013, Q-Chem Inc. Pittsburgh 
 -------------------------------------------------------
 ---------------------------------------
  Cycle       Energy         DIIS Error
 ---------------------------------------
    1    -409.9630568458      8.38E-03
    2    -409.9138799574      6.55E-03
    3    -409.9643364679      2.35E-03
    4    -410.0420689317      1.21E-03
    5    -410.0558635749      1.38E-03
    6    -410.0610578249      2.48E-04 Done RCA. Switching to DIIS
    7    -410.0702447555      4.79E-04
    8    -410.0718822988      8.85E-05
    9    -410.0722513985      7.47E-05
   10    -410.0724183532      5.28E-05
   11    -410.0724591134      2.69E-05
   12    -410.0724670270      7.21E-06 Convergence criterion met
 ---------------------------------------
 <S^2> = 2.0170
 SCF time:  CPU 78.17 s  wall 13.06 s
 SCF   energy in the final basis set = -410.07246703
 Total energy in the final basis set = -410.07246703
 
 --------------------------------------------------------------
 
                    Orbital Energies (a.u.)
 --------------------------------------------------------------
 
 Alpha MOs
 -- Occupied --
-19.4306 -19.4087 -19.3339 -19.3282 -14.7715 -14.6301  -1.4647  -1.3791
 -1.2537  -1.2396  -0.8997  -0.7808  -0.7316  -0.7138  -0.6948  -0.6567
 -0.6406  -0.6330  -0.5120  -0.5070  -0.4645  -0.4509  -0.4264  -0.3493
 -- Virtual --
 -0.0155   0.0041   0.0847   0.1159   0.1332   0.1357   0.1617   0.1743
  0.1859   0.1898   0.2257   0.2411   0.2484   0.2691   0.2756   0.2901
  0.3050   0.3340   0.3411   0.3520   0.3582   0.3601   0.3760   0.3885
  0.4238   0.4370   0.4469   0.4620   0.4858   0.5117   0.7345   0.7650
  0.8001   0.8243   0.8594   0.8944   0.9384   0.9572   0.9778   1.0111
  1.0194   1.0431   1.0615   1.0685   1.0945   1.0952   1.1026   1.1288
  1.1404   1.1477   1.1528   1.1654   1.2071   1.2483   1.2716   1.3323
  1.4581   1.4729   1.5232   1.5629   1.5827   1.5980   1.6041   1.6193
  1.6344   1.6634   1.7116   1.8099   1.8288   1.9288   1.9492   1.9698
  2.0134   2.1327   2.2087   2.2705   2.3509   2.3761   2.4424   2.4934
  2.5609   2.5780   2.7391   2.8196   3.5009   3.5269   3.6100   3.6192
  3.6552   3.6840   3.6983   3.7285   3.7368   3.7767   3.7997   3.9176
  3.9566   4.0065   4.0261   4.1544   4.1950   4.4304   4.4402   4.5046
  4.5270   4.5638   4.6217   4.6295   4.6732   4.6828   4.7185   4.7657
  4.8247   4.8995   4.9926   4.9968   5.0179   5.0252   5.0487   5.0591
  5.0738   5.0808   5.0949   5.1366   5.1391   5.1453   5.1670   5.1837
  5.2107   5.2468   5.2935   5.3578   5.4030   5.4331   5.5030   5.5112
  5.5624   5.6337   5.6605   5.8152   5.8810   6.0858   6.1531   6.1723
  6.3753   6.6397   6.6537   6.6780   6.6986   6.7229   6.7294   6.7658
  6.7990   6.8009   6.8679   6.8866   6.9490   7.0173   7.1116   7.1582
  7.1872   7.2194   7.2206   7.2597   7.3577   7.4744   7.5953   7.6302
  7.6875   7.6993   7.8785   7.9456   7.9786   8.1273  35.9074  36.2183
 50.0397  50.1603  50.2373  50.3037
 
 Beta MOs
 -- Occupied --
-19.4180 -19.3908 -19.3309 -19.3284 -14.7714 -14.6116  -1.4579  -1.3411
 -1.2412  -1.2206  -0.8545  -0.7422  -0.7284  -0.7022  -0.6712  -0.6067
 -0.5921  -0.5650  -0.4932  -0.4789  -0.4492  -0.4237
 -- Virtual --
 -0.1645  -0.0136  -0.0104   0.0532   0.0895   0.1196   0.1370   0.1394
  0.1667   0.1791   0.1897   0.2005   0.2270   0.2460   0.2514   0.2717
  0.2769   0.2921   0.3122   0.3353   0.3430   0.3532   0.3601   0.3623
  0.3787   0.4022   0.4270   0.4429   0.4508   0.4663   0.5028   0.5188
  0.7459   0.7737   0.8131   0.8449   0.8731   0.9000   0.9445   0.9616
  0.9902   1.0186   1.0263   1.0595   1.0721   1.0862   1.1002   1.1096
  1.1121   1.1394   1.1462   1.1588   1.1664   1.1777   1.2174   1.2565
  1.2892   1.3475   1.4719   1.4840   1.5292   1.5705   1.5989   1.6050
  1.6167   1.6326   1.6500   1.6885   1.7183   1.8186   1.8429   1.9437
  1.9540   1.9782   2.0258   2.1539   2.2224   2.2733   2.3623   2.3883
  2.4581   2.5077   2.5627   2.5829   2.7502   2.8244   3.5330   3.5625
  3.6259   3.6378   3.6655   3.6911   3.7105   3.7419   3.7606   3.8094
  3.8541   3.9330   3.9891   4.0138   4.0427   4.1635   4.2062   4.4346
  4.4468   4.5097   4.5295   4.5799   4.6304   4.6641   4.6914   4.7114
  4.7560   4.8057   4.8731   4.9482   5.0112   5.0191   5.0511   5.0536
  5.0552   5.0644   5.0876   5.0951   5.1303   5.1432   5.1541   5.1674
  5.1829   5.2047   5.2272   5.2703   5.3044   5.3732   5.4237   5.4464
  5.5214   5.5365   5.5805   5.6632   5.6699   5.8218   5.8841   6.1122
  6.1697   6.1863   6.3889   6.6531   6.6927   6.6961   6.7161   6.7675
  6.7871   6.7961   6.8025   6.8106   6.8760   6.8912   6.9802   7.0346
  7.1357   7.1916   7.2057   7.2223   7.2376   7.2725   7.3852   7.5005
  7.6053   7.6431   7.7138   7.7215   7.8830   7.9617   7.9902   8.1297
 35.9296  36.2185  50.0527  50.1770  50.2394  50.3043
 --------------------------------------------------------------
 
 -----------------------------------------------------------------
                    Cartesian Multipole Moments
 -----------------------------------------------------------------
    Charge (ESU x 10^10)
                -0.0000
    Dipole Moment (Debye)
         X      -0.6780      Y      -1.3704      Z       0.1141
       Tot       1.5332
    Quadrupole Moments (Debye-Ang)
        XX     -33.5332     XY      -1.5249     YY     -34.2827
        XZ      -3.1515     YZ      -2.3363     ZZ     -31.7922
    Octopole Moments (Debye-Ang^2)
       XXX     -34.9945    XXY     -13.7371    XYY     -12.3002
       YYY     -43.9864    XXZ     -97.2794    XYZ      -5.5933
       YYZ     -93.2855    XZZ     -21.8859    YZZ     -14.2450
       ZZZ    -274.1808
    Hexadecapole Moments (Debye-Ang^3)
      XXXX    -138.8781   XXXY     -64.5079   XXYY     -84.0177
      XYYY     -66.9689   YYYY    -364.2741   XXXZ     -92.6911
      XXYZ     -17.1939   XYYZ     -30.8582   YYYZ     -47.1154
      XXZZ    -324.7249   XYZZ     -40.0054   YYZZ    -336.9917
      XZZZ    -117.2826   YZZZ     -24.6905   ZZZZ   -1695.2394
 -----------------------------------------------------------------
Archival summary:
1\1\centos77-c5\SP\ProcedureUnspecified\BasisUnspecified\42(3)\shihchen\MonJul1315:42:252020MonJul1315:42:252020\0\\#,ProcedureUnspecified,BasisUnspecified,\\0,3\N\O,1,1.17743\O,1,1.18826,2,122.621\O,1,1.32635,2,123.198,3,178.089,0\N,4,1.62806,1,113.155,2,4.56664,0\O,5,1.16736,4,121.958,1,95.6829,0\\\@

 Total job time:  17.84s(wall), 96.71s(cpu) 
 Mon Jul 13 15:42:25 2020

        *************************************************************
        *                                                           *
        *  Thank you very much for using Q-Chem.  Have a nice day.  *
        *                                                           *
        *************************************************************


