                  Welcome to Q-Chem
     A Quantum Leap Into The Future Of Chemistry


 Q-Chem 5.3 (devel), Q-Chem, Inc., Pleasanton, CA (2020)

 Yihan Shao,  Zhengting Gan,  E. Epifanovsky,  A. T. B. Gilbert,  M. Wormit,  
 J. Kussmann,  A. W. Lange,  A. Behn,  Jia Deng,  Xintian Feng,  D. Ghosh,  
 M. Goldey,  P. R. Horn,  L. D. Jacobson,  I. Kaliman,  T. Kus,  A. Landau,  
 Jie Liu,  E. I. Proynov,  R. M. Richard,  R. P. Steele,  E. J. Sundstrom,  
 H. L. Woodcock III,  P. M. Zimmerman,  D. Zuev,  B. Alam,  B. Albrecht,  
 E. Alguire,  S. A. Baeppler,  D. Barton,  Z. Benda,  Y. A. Bernard,  
 E. J. Berquist,  K. B. Bravaya,  H. Burton,  K. Carter-Fenk,  D. Casanova,  
 Chun-Min Chang,  Yunqing Chen,  A. Chien,  K. D. Closser,  M. P. Coons,  
 S. Coriani,  S. Dasgupta,  A. L. Dempwolff,  M. Diedenhofen,  Hainam Do,  
 R. G. Edgar,  Po-Tung Fang,  S. Faraji,  S. Fatehi,  Qingguo Feng,  
 J. Fosso-Tande,  J. Gayvert,  Qinghui Ge,  A. Ghysels,  G. Gidofalvi,  
 J. Gomes,  J. Gonthier,  A. Gunina,  D. Hait,  M. W. D. Hanson-Heine,  
 P. H. P. Harbach,  A. W. Hauser,  M. F. Herbst,  J. E. Herr,  
 E. G. Hohenstein,  Z. C. Holden,  Kerwin Hui,  B. C. Huynh,  T.-C. Jagau,  
 Hyunjun Ji,  B. Kaduk,  K. Khistyaev,  Jaehoon Kim,  P. Klunzinger,  K. Koh,  
 D. Kosenkov,  L. Koulias,  T. Kowalczyk,  C. M. Krauter,  A. Kunitsa,  
 Ka Un Lao,  A. Laurent,  K. V. Lawler,  Joonho Lee,  D. Lefrancois,  
 S. Lehtola,  D. S. Levine,  Yi-Pei Li,  You-Sheng Lin,  Fenglai Liu,  
 Kuan-Yu Liu,  E. Livshits,  M. Loipersberger,  A. Luenser,  P. Manohar,  
 E. Mansoor,  S. F. Manzer,  Shan-Ping Mao,  Yuezhi Mao,  N. Mardirossian,  
 A. V. Marenich,  T. Markovich,  L. A. Martinez-Martinez,  S. A. Maurer,  
 N. J. Mayhall,  S. C. McKenzie,  J.-M. Mewes,  P. Morgante,  A. F. Morrison,  
 J. W. Mullinax,  K. Nanda,  T. S. Nguyen-Beck,  R. Olivares-Amaya,  
 K. J. Oosterbaan,  J. A. Parkhill,  S. K. Paul,  F. Pavosevic,  Zheng Pei,  
 T. M. Perrine,  F. Plasser,  P. Pokhilko,  S. Prager,  A. Prociuk,  
 E. Ramos,  B. Rana,  D. R. Rehn,  F. Rob,  M. Scheurer,  M. Schneider,  
 N. Sergueev,  S. M. Sharada,  S. Sharma,  D. W. Small,  T. Stauch,  
 C. J. Stein,  T. Stein,  Yu-Chuan Su,  S. P. Veccham,  Zhen Tao,  
 A. J. W. Thom,  A. Tkatchenko,  T. Tsuchimochi,  N. M. Tubman,  L. Vogt,  
 M. L. Vidal,  O. Vydrov,  M. A. Watson,  J. Wenzel,  M. de Wergifosse,  
 T. A. Wesolowski,  A. White,  J. Witte,  A. Yamada,  Jun Yang,  K. Yao,  
 S. Yeganeh,  S. R. Yost,  Zhi-Qiang You,  A. Zech,  Igor Ying Zhang,  
 Xing Zhang,  Yan Zhao,  Ying Zhu,  B. R. Brooks,  G. K. L. Chan,  
 C. J. Cramer,  M. S. Gordon,  W. J. Hehre,  A. Klamt,  M. W. Schmidt,  
 C. D. Sherrill,  D. G. Truhlar,  A. Aspuru-Guzik,  R. Baer,  A. T. Bell,  
 N. A. Besley,  Jeng-Da Chai,  A. E. DePrince, III,  R. A. DiStasio Jr.,  
 A. Dreuw,  B. D. Dunietz,  T. R. Furlani,  Chao-Ping Hsu,  Yousung Jung,  
 Jing Kong,  D. S. Lambrecht,  WanZhen Liang,  C. Ochsenfeld,  
 V. A. Rassolov,  L. V. Slipchenko,  J. E. Subotnik,  T. Van Voorhis,  
 J. M. Herbert,  A. I. Krylov,  P. M. W. Gill,  M. Head-Gordon

 Contributors to earlier versions of Q-Chem not listed above: 
 R. D. Adamson,  B. Austin,  J. Baker,  G. J. O. Beran,  K. Brandhorst,  
 S. T. Brown,  E. F. C. Byrd,  A. K. Chakraborty,  C.-L. Cheng,  
 Siu Hung Chien,  D. M. Chipman,  D. L. Crittenden,  H. Dachsel,  
 R. J. Doerksen,  A. D. Dutoi,  L. Fusti-Molnar,  W. A. Goddard III,  
 A. Golubeva-Zadorozhnaya,  S. R. Gwaltney,  G. Hawkins,  A. Heyden,  
 S. Hirata,  G. Kedziora,  F. J. Keil,  C. Kelley,  Jihan Kim,  R. A. King,  
 R. Z. Khaliullin,  P. P. Korambath,  W. Kurlancheek,  A. M. Lee,  M. S. Lee,  
 S. V. Levchenko,  Ching Yeh Lin,  D. Liotard,  R. C. Lochan,  I. Lotan,  
 P. E. Maslen,  N. Nair,  D. P. O'Neill,  D. Neuhauser,  E. Neuscamman,  
 C. M. Oana,  R. Olson,  B. Peters,  R. Peverati,  P. A. Pieniazek,  
 Y. M. Rhee,  J. Ritchie,  M. A. Rohrdanz,  E. Rosta,  N. J. Russ,  
 H. F. Schaefer III,  N. E. Schultz,  N. Shenvi,  A. C. Simmonett,  A. Sodt,  
 D. Stuck,  K. S. Thanthiriwatte,  V. Vanovschi,  Tao Wang,  A. Warshel,  
 C. F. Williams,  Q. Wu,  X. Xu,  W. Zhang

 Please cite Q-Chem as follows:
 Y. Shao et al., Mol. Phys. 113, 184-215 (2015)
 DOI: 10.1080/00268976.2014.952696

 Q-Chem 5.3.0 for Intel X86 EM64T Linux

 Parts of Q-Chem use Armadillo 9.800.1 (Horizon Scraper).
 http://arma.sourceforge.net/

 Q-Chem begins on Mon Jul 13 15:34:35 2020  

Host: centos77-c5
0

     Scratch files written to /tmp/29025.centos77-h1/qchem34683//
Processing $rem in /opt/qchem-5.3.0-intel2020u1//config/preferences:
Processing $rem in /home/shihchengli/.qchemrc:

Checking the input file for inconsistencies... 	...done.

--------------------------------------------------------------
User input:
--------------------------------------------------------------
$rem
   JOBTYPE  sp
   EXCHANGE   omegaB97X-D
   BASIS   6-311+G(2df,2pd)
   UNRESTRICTED   True
   max_scf_cycles   250
   geom_opt_max_cycles   1500
   basis2 6-31G*
   scf_algorithm rca_diis
   SYM_IGNORE  TRUE
   print_input   true
   geom_opt_dmax   80
   pop_mulliken false
   XC_GRID 000075000302
$end

$molecule
0 3
N       0.6772180535     1.2454734380     2.4693559074
O       0.4108176712     2.2388241485     1.8789396099
O       1.5959391364     0.9890328918     3.1602334460
N       0.0580841951     -1.2053577456     3.1492308441
O       -0.5053064487     -1.3002547996     4.1738741129
O       -0.2917614775     0.1272711768     2.2686659696
$end
--------------------------------------------------------------
 ----------------------------------------------------------------
             Standard Nuclear Orientation (Angstroms)
    I     Atom           X                Y                Z
 ----------------------------------------------------------------
    1      N       0.6772180535     1.2454734380     2.4693559074
    2      O       0.4108176712     2.2388241485     1.8789396099
    3      O       1.5959391364     0.9890328918     3.1602334460
    4      N       0.0580841951    -1.2053577456     3.1492308441
    5      O      -0.5053064487    -1.3002547996     4.1738741129
    6      O      -0.2917614775     0.1272711768     2.2686659696
 ----------------------------------------------------------------
 Nuclear Repulsion Energy =         229.54193576 hartrees
 There are       24 alpha and       22 beta electrons
 Requested basis set is 6-311+G(2df,2pd)
 There are 48 shells and 204 basis functions

 Total QAlloc Memory Limit   2000 MB
 Mega-Array Size       188 MB
 MEM_STATIC part       192 MB

                       Distance Matrix (Angstroms)
             N (  1)   O (  2)   O (  3)   N (  4)   O (  5)
   O (  2)  1.185878
   O (  3)  1.177761  2.146673
   N (  4)  2.617657  3.687879  2.679640
   O (  5)  3.283973  4.316374  3.268568  1.173162
   O (  6)  1.493176  2.259239  2.258526  1.635141  2.390241
 
 A cutoff of  1.0D-09 yielded   1019 shell pairs
 There are     18976 function pairs (     24883 Cartesian)
 Smallest overlap matrix eigenvalue = 6.95E-04

 Scale SEOQF with 1.000000e-01/1.000000e-01/1.000000e-01

 Standard Electronic Orientation quadrupole field applied
 Nucleus-field energy     =    -0.0000000360 hartrees
 Requested basis set is 6-31G(d)
 There are 24 shells and 84 basis functions
 A cutoff of  1.0D-09 yielded    266 shell pairs
 There are      3498 function pairs (      4022 Cartesian)
 Smallest overlap matrix eigenvalue = 5.25E-03
 Guess from superposition of atomic densities
 Warning:  Energy on first SCF cycle will be non-variational
 SAD guess density has 46.000000 electrons
 Long-range K will be added via erf
 Coulomb attenuation parameter = 0.2 bohr**(-1)
 An unrestricted hybrid HF-DFT SCF calculation will be
 performed using Relaxed Constraint Minimization + Pulay DIIS
 Exchange:     0.2220 Hartree-Fock + 1.0000 wB97X-D + LR-HF
 Correlation:  1.0000 wB97X-D
 Using Euler-Maclaurin-Lebedev (75,302) quadrature formula
 Dispersion:   Grimme D
 SCF converges when DIIS error is below 1.0E-04
 using 6 threads for integral computing
 -------------------------------------------------------
 OpenMP Integral computing Module                
 Release: version 1.0, May 2013, Q-Chem Inc. Pittsburgh 
 -------------------------------------------------------
 using 6 threads for integral computing
 -------------------------------------------------------
 OpenMP Integral computing Module                
 Release: version 1.0, May 2013, Q-Chem Inc. Pittsburgh 
 -------------------------------------------------------
 ---------------------------------------
  Cycle       Energy         DIIS Error
 ---------------------------------------
    1    -410.9489073205      8.72E-02
    2    -409.6593366308      1.93E-02
    3    -409.7621141298      4.24E-03
    4    -409.9074040652      4.47E-03
    5    -409.9131347037      6.64E-04 Done RCA. Switching to DIIS
    6    -409.9209660969      5.91E-04
    7    -409.9214229951      7.85E-05 Convergence criterion met
 ---------------------------------------
 <S^2> = 2.0165
 SCF time:  CPU 13.08 s  wall 2.19 s
 SCF   energy in the small basis set = -409.92142300
 Total energy in the small basis set = -409.92142300
 ----------------------------------------------------
  Cycle       Energy    
 ----------------------------------------------------
    1     -41.7298469612     -4.17E+01
 Long-range K will be added via erf
 Coulomb attenuation parameter = 0.2 bohr**(-1)
 An unrestricted hybrid HF-DFT SCF calculation will be
 performed using Relaxed Constraint Minimization + Pulay DIIS
 Exchange:     0.2220 Hartree-Fock + 1.0000 wB97X-D + LR-HF
 Correlation:  1.0000 wB97X-D
 Using Euler-Maclaurin-Lebedev (75,302) quadrature formula
 Dispersion:   Grimme D
 SCF converges when DIIS error is below 1.0E-05
 Basis2 calculation detected. Using small basis as guess for larger.
 SCFMinFind is unable to tell whether the solution found is close.
 Resetting ReadMinima to 0 and attempting to follow guess.
 SCFMinFind following SCF Guess.
 using 6 threads for integral computing
 -------------------------------------------------------
 OpenMP Integral computing Module                
 Release: version 1.0, May 2013, Q-Chem Inc. Pittsburgh 
 -------------------------------------------------------
 using 6 threads for integral computing
 -------------------------------------------------------
 OpenMP Integral computing Module                
 Release: version 1.0, May 2013, Q-Chem Inc. Pittsburgh 
 -------------------------------------------------------
 ---------------------------------------
  Cycle       Energy         DIIS Error
 ---------------------------------------
    1    -410.0105444348      8.02E-03
    2    -410.0208050487      4.14E-03
    3    -410.0419610591      1.09E-03
    4    -410.0717503306      1.18E-03
    5    -410.0737523722      1.89E-04 Done RCA. Switching to DIIS
    6    -410.0765949382      2.01E-04
    7    -410.0768060482      5.03E-05
    8    -410.0768639537      2.18E-05
    9    -410.0768857620      1.02E-05
   10    -410.0768925905      4.79E-06 Convergence criterion met
 ---------------------------------------
 <S^2> = 2.0196
 SCF time:  CPU 63.64 s  wall 10.64 s
 SCF   energy in the final basis set = -410.07689259
 Total energy in the final basis set = -410.07689259
 
 --------------------------------------------------------------
 
                    Orbital Energies (a.u.)
 --------------------------------------------------------------
 
 Alpha MOs
 -- Occupied --
-19.4052 -19.4003 -19.3569 -19.3486 -14.7706 -14.6206  -1.4400  -1.3677
 -1.2599  -1.1896  -0.8682  -0.7771  -0.7190  -0.7133  -0.6818  -0.6568
 -0.6338  -0.6316  -0.4972  -0.4902  -0.4668  -0.4610  -0.4439  -0.3403
 -- Virtual --
 -0.0241   0.0060   0.0586   0.1045   0.1195   0.1351   0.1386   0.1689
  0.1769   0.1843   0.2268   0.2417   0.2483   0.2684   0.2753   0.2870
  0.3051   0.3305   0.3446   0.3475   0.3524   0.3600   0.3655   0.3888
  0.4003   0.4332   0.4413   0.4536   0.4938   0.5247   0.7413   0.7690
  0.8043   0.8232   0.8564   0.8929   0.9311   0.9456   0.9716   1.0118
  1.0325   1.0438   1.0592   1.0728   1.0832   1.0929   1.1224   1.1293
  1.1367   1.1550   1.1611   1.1684   1.2184   1.2505   1.2752   1.3227
  1.4235   1.4513   1.5154   1.5399   1.5712   1.5954   1.5982   1.6310
  1.6654   1.6898   1.6992   1.7774   1.8154   1.8667   1.8853   1.9051
  1.9634   2.1200   2.1840   2.2388   2.3168   2.3650   2.4158   2.4911
  2.5418   2.5526   2.6717   2.7940   3.4885   3.5450   3.5770   3.6142
  3.6316   3.6644   3.6902   3.7132   3.7331   3.7750   3.7893   3.8912
  3.9427   3.9641   4.0189   4.0327   4.0788   4.4323   4.4639   4.4875
  4.4899   4.5953   4.6561   4.6586   4.6762   4.7234   4.7471   4.7850
  4.8264   4.9256   4.9944   5.0046   5.0187   5.0310   5.0385   5.0435
  5.0571   5.0793   5.0843   5.0949   5.1225   5.1400   5.1563   5.1651
  5.1965   5.2634   5.3196   5.3790   5.4062   5.4130   5.4287   5.4892
  5.5172   5.5518   5.6353   5.6681   5.7579   5.7715   5.9679   6.1146
  6.2537   6.5265   6.5548   6.6330   6.6744   6.7243   6.7472   6.7657
  6.7893   6.8245   6.8790   6.8941   6.9310   6.9903   7.0655   7.0803
  7.1585   7.1741   7.2007   7.2624   7.2942   7.3667   7.4309   7.5651
  7.6279   7.6852   7.7555   7.8300   7.8802   8.2545  35.9054  36.1222
 49.9786  50.1561  50.2298  50.2599
 
 Beta MOs
 -- Occupied --
-19.3922 -19.3815 -19.3553 -19.3490 -14.7702 -14.6032  -1.4369  -1.3285
 -1.2581  -1.1532  -0.8263  -0.7447  -0.7118  -0.7044  -0.6733  -0.6013
 -0.5812  -0.5584  -0.4709  -0.4672  -0.4661  -0.4486
 -- Virtual --
 -0.1542  -0.0225  -0.0154   0.0514   0.0846   0.1157   0.1231   0.1402
  0.1425   0.1703   0.1805   0.1888   0.2281   0.2458   0.2514   0.2696
  0.2784   0.2894   0.3125   0.3321   0.3456   0.3492   0.3546   0.3614
  0.3686   0.3971   0.4094   0.4368   0.4458   0.4578   0.5113   0.5290
  0.7508   0.7766   0.8188   0.8430   0.8692   0.8973   0.9338   0.9522
  0.9814   1.0215   1.0395   1.0587   1.0713   1.0852   1.0939   1.1061
  1.1334   1.1381   1.1500   1.1589   1.1754   1.1851   1.2295   1.2614
  1.2904   1.3359   1.4361   1.4642   1.5206   1.5429   1.5753   1.6058
  1.6183   1.6530   1.6901   1.7041   1.7139   1.7840   1.8201   1.8779
  1.8983   1.9144   1.9793   2.1338   2.1974   2.2509   2.3314   2.3736
  2.4302   2.5051   2.5441   2.5596   2.6798   2.7976   3.5087   3.5780
  3.5914   3.6320   3.6525   3.6669   3.7059   3.7254   3.7443   3.8018
  3.8550   3.9086   3.9626   3.9920   4.0199   4.0496   4.0920   4.4343
  4.4690   4.4896   4.4923   4.6264   4.6620   4.6919   4.7125   4.7411
  4.7838   4.8126   4.8688   4.9752   5.0134   5.0256   5.0407   5.0437
  5.0513   5.0636   5.0771   5.0830   5.1028   5.1193   5.1334   5.1647
  5.1855   5.2002   5.2059   5.2925   5.3388   5.3924   5.4101   5.4262
  5.4409   5.5019   5.5404   5.5783   5.6615   5.6811   5.7689   5.7763
  5.9825   6.1534   6.2602   6.5391   6.5563   6.6776   6.7112   6.7669
  6.7916   6.7958   6.8108   6.8316   6.8813   6.8960   6.9640   7.0052
  7.0797   7.0998   7.1708   7.2017   7.2288   7.2713   7.3229   7.3703
  7.4559   7.5717   7.6557   7.7140   7.7678   7.8514   7.8836   8.2563
 35.9263  36.1228  49.9926  50.1736  50.2312  50.2598
 --------------------------------------------------------------
 
 -----------------------------------------------------------------
                    Cartesian Multipole Moments
 -----------------------------------------------------------------
    Charge (ESU x 10^10)
                 0.0000
    Dipole Moment (Debye)
         X      -0.1782      Y      -0.6310      Z       0.1037
       Tot       0.6638
    Quadrupole Moments (Debye-Ang)
        XX     -33.0829     XY      -0.8637     YY     -32.9802
        XZ      -1.6099     YZ      -0.7158     ZZ     -31.9003
    Octopole Moments (Debye-Ang^2)
       XXX     -33.5850    XXY     -12.6668    XYY     -11.2748
       YYY     -40.9026    XXZ     -95.9579    XYZ      -3.8385
       YYZ     -90.3374    XZZ     -16.8338    YZZ     -10.1006
       ZZZ    -275.0077
    Hexadecapole Moments (Debye-Ang^3)
      XXXX    -140.0188   XXXY     -64.1087   XXYY     -85.4540
      XYYY     -65.8493   YYYY    -373.2137   XXXZ     -88.5128
      XXYZ     -14.0575   XYYZ     -28.0917   YYYZ     -39.0854
      XXZZ    -321.3406   XYZZ     -35.4986   YYZZ    -332.1862
      XZZZ     -99.8126   YZZZ     -11.3807   ZZZZ   -1701.9788
 -----------------------------------------------------------------
Archival summary:
1\1\centos77-c5\SP\ProcedureUnspecified\BasisUnspecified\42(3)\shihchen\MonJul1315:34:512020MonJul1315:34:512020\0\\#,ProcedureUnspecified,BasisUnspecified,\\0,3\N\O,1,1.17776\O,1,1.18588,2,130.517\O,1,1.49318,2,114.961,3,177.931,0\N,4,1.63514,1,113.522,2,4.52861,0\O,5,1.17316,4,115.692,1,95.682,0\\\@

 Total job time:  15.13s(wall), 80.73s(cpu) 
 Mon Jul 13 15:34:51 2020

        *************************************************************
        *                                                           *
        *  Thank you very much for using Q-Chem.  Have a nice day.  *
        *                                                           *
        *************************************************************


