                  Welcome to Q-Chem
     A Quantum Leap Into The Future Of Chemistry


 Q-Chem 5.3 (devel), Q-Chem, Inc., Pleasanton, CA (2020)

 Yihan Shao,  Zhengting Gan,  E. Epifanovsky,  A. T. B. Gilbert,  M. Wormit,  
 J. Kussmann,  A. W. Lange,  A. Behn,  Jia Deng,  Xintian Feng,  D. Ghosh,  
 M. Goldey,  P. R. Horn,  L. D. Jacobson,  I. Kaliman,  T. Kus,  A. Landau,  
 Jie Liu,  E. I. Proynov,  R. M. Richard,  R. P. Steele,  E. J. Sundstrom,  
 H. L. Woodcock III,  P. M. Zimmerman,  D. Zuev,  B. Alam,  B. Albrecht,  
 E. Alguire,  S. A. Baeppler,  D. Barton,  Z. Benda,  Y. A. Bernard,  
 E. J. Berquist,  K. B. Bravaya,  H. Burton,  K. Carter-Fenk,  D. Casanova,  
 Chun-Min Chang,  Yunqing Chen,  A. Chien,  K. D. Closser,  M. P. Coons,  
 S. Coriani,  S. Dasgupta,  A. L. Dempwolff,  M. Diedenhofen,  Hainam Do,  
 R. G. Edgar,  Po-Tung Fang,  S. Faraji,  S. Fatehi,  Qingguo Feng,  
 J. Fosso-Tande,  J. Gayvert,  Qinghui Ge,  A. Ghysels,  G. Gidofalvi,  
 J. Gomes,  J. Gonthier,  A. Gunina,  D. Hait,  M. W. D. Hanson-Heine,  
 P. H. P. Harbach,  A. W. Hauser,  M. F. Herbst,  J. E. Herr,  
 E. G. Hohenstein,  Z. C. Holden,  Kerwin Hui,  B. C. Huynh,  T.-C. Jagau,  
 Hyunjun Ji,  B. Kaduk,  K. Khistyaev,  Jaehoon Kim,  P. Klunzinger,  K. Koh,  
 D. Kosenkov,  L. Koulias,  T. Kowalczyk,  C. M. Krauter,  A. Kunitsa,  
 Ka Un Lao,  A. Laurent,  K. V. Lawler,  Joonho Lee,  D. Lefrancois,  
 S. Lehtola,  D. S. Levine,  Yi-Pei Li,  You-Sheng Lin,  Fenglai Liu,  
 Kuan-Yu Liu,  E. Livshits,  M. Loipersberger,  A. Luenser,  P. Manohar,  
 E. Mansoor,  S. F. Manzer,  Shan-Ping Mao,  Yuezhi Mao,  N. Mardirossian,  
 A. V. Marenich,  T. Markovich,  L. A. Martinez-Martinez,  S. A. Maurer,  
 N. J. Mayhall,  S. C. McKenzie,  J.-M. Mewes,  P. Morgante,  A. F. Morrison,  
 J. W. Mullinax,  K. Nanda,  T. S. Nguyen-Beck,  R. Olivares-Amaya,  
 K. J. Oosterbaan,  J. A. Parkhill,  S. K. Paul,  F. Pavosevic,  Zheng Pei,  
 T. M. Perrine,  F. Plasser,  P. Pokhilko,  S. Prager,  A. Prociuk,  
 E. Ramos,  B. Rana,  D. R. Rehn,  F. Rob,  M. Scheurer,  M. Schneider,  
 N. Sergueev,  S. M. Sharada,  S. Sharma,  D. W. Small,  T. Stauch,  
 C. J. Stein,  T. Stein,  Yu-Chuan Su,  S. P. Veccham,  Zhen Tao,  
 A. J. W. Thom,  A. Tkatchenko,  T. Tsuchimochi,  N. M. Tubman,  L. Vogt,  
 M. L. Vidal,  O. Vydrov,  M. A. Watson,  J. Wenzel,  M. de Wergifosse,  
 T. A. Wesolowski,  A. White,  J. Witte,  A. Yamada,  Jun Yang,  K. Yao,  
 S. Yeganeh,  S. R. Yost,  Zhi-Qiang You,  A. Zech,  Igor Ying Zhang,  
 Xing Zhang,  Yan Zhao,  Ying Zhu,  B. R. Brooks,  G. K. L. Chan,  
 C. J. Cramer,  M. S. Gordon,  W. J. Hehre,  A. Klamt,  M. W. Schmidt,  
 C. D. Sherrill,  D. G. Truhlar,  A. Aspuru-Guzik,  R. Baer,  A. T. Bell,  
 N. A. Besley,  Jeng-Da Chai,  A. E. DePrince, III,  R. A. DiStasio Jr.,  
 A. Dreuw,  B. D. Dunietz,  T. R. Furlani,  Chao-Ping Hsu,  Yousung Jung,  
 Jing Kong,  D. S. Lambrecht,  WanZhen Liang,  C. Ochsenfeld,  
 V. A. Rassolov,  L. V. Slipchenko,  J. E. Subotnik,  T. Van Voorhis,  
 J. M. Herbert,  A. I. Krylov,  P. M. W. Gill,  M. Head-Gordon

 Contributors to earlier versions of Q-Chem not listed above: 
 R. D. Adamson,  B. Austin,  J. Baker,  G. J. O. Beran,  K. Brandhorst,  
 S. T. Brown,  E. F. C. Byrd,  A. K. Chakraborty,  C.-L. Cheng,  
 Siu Hung Chien,  D. M. Chipman,  D. L. Crittenden,  H. Dachsel,  
 R. J. Doerksen,  A. D. Dutoi,  L. Fusti-Molnar,  W. A. Goddard III,  
 A. Golubeva-Zadorozhnaya,  S. R. Gwaltney,  G. Hawkins,  A. Heyden,  
 S. Hirata,  G. Kedziora,  F. J. Keil,  C. Kelley,  Jihan Kim,  R. A. King,  
 R. Z. Khaliullin,  P. P. Korambath,  W. Kurlancheek,  A. M. Lee,  M. S. Lee,  
 S. V. Levchenko,  Ching Yeh Lin,  D. Liotard,  R. C. Lochan,  I. Lotan,  
 P. E. Maslen,  N. Nair,  D. P. O'Neill,  D. Neuhauser,  E. Neuscamman,  
 C. M. Oana,  R. Olson,  B. Peters,  R. Peverati,  P. A. Pieniazek,  
 Y. M. Rhee,  J. Ritchie,  M. A. Rohrdanz,  E. Rosta,  N. J. Russ,  
 H. F. Schaefer III,  N. E. Schultz,  N. Shenvi,  A. C. Simmonett,  A. Sodt,  
 D. Stuck,  K. S. Thanthiriwatte,  V. Vanovschi,  Tao Wang,  A. Warshel,  
 C. F. Williams,  Q. Wu,  X. Xu,  W. Zhang

 Please cite Q-Chem as follows:
 Y. Shao et al., Mol. Phys. 113, 184-215 (2015)
 DOI: 10.1080/00268976.2014.952696

 Q-Chem 5.3.0 for Intel X86 EM64T Linux

 Parts of Q-Chem use Armadillo 9.800.1 (Horizon Scraper).
 http://arma.sourceforge.net/

 Q-Chem begins on Mon Jul 13 15:23:47 2020  

Host: centos77-c5
0

     Scratch files written to /tmp/29025.centos77-h1/qchem102233//
Processing $rem in /opt/qchem-5.3.0-intel2020u1//config/preferences:
Processing $rem in /home/shihchengli/.qchemrc:

Checking the input file for inconsistencies... 	...done.

--------------------------------------------------------------
User input:
--------------------------------------------------------------
$rem
   JOBTYPE  sp
   EXCHANGE   omegaB97X-D
   BASIS   6-311+G(2df,2pd)
   UNRESTRICTED   True
   max_scf_cycles   250
   geom_opt_max_cycles   1500
   basis2 6-31G*
   scf_algorithm rca_diis
   SYM_IGNORE  TRUE
   print_input   true
   geom_opt_dmax   80
   pop_mulliken false
   XC_GRID 000075000302
$end

$molecule
0 3
N       0.5827975833     1.1210409639     2.4801371506
O       0.4717307309     2.1863764304     1.9575613427
O       1.3710002980     0.7076565741     3.2646893654
N       0.1963732748     -0.9926675750     3.1380679115
O       -0.3011588069     -1.1214255433     4.1765903957
O       -0.3757519499     0.1940082598     2.0832537241
$end
--------------------------------------------------------------
 ----------------------------------------------------------------
             Standard Nuclear Orientation (Angstroms)
    I     Atom           X                Y                Z
 ----------------------------------------------------------------
    1      N       0.5827975833     1.1210409639     2.4801371506
    2      O       0.4717307309     2.1863764304     1.9575613427
    3      O       1.3710002980     0.7076565741     3.2646893654
    4      N       0.1963732748    -0.9926675750     3.1380679115
    5      O      -0.3011588069    -1.1214255433     4.1765903957
    6      O      -0.3757519499     0.1940082598     2.0832537241
 ----------------------------------------------------------------
 Nuclear Repulsion Energy =         240.58918518 hartrees
 There are       24 alpha and       22 beta electrons
 Requested basis set is 6-311+G(2df,2pd)
 There are 48 shells and 204 basis functions

 Total QAlloc Memory Limit   2000 MB
 Mega-Array Size       188 MB
 MEM_STATIC part       192 MB

                       Distance Matrix (Angstroms)
             N (  1)   O (  2)   O (  3)   N (  4)   O (  5)
   O (  2)  1.191789
   O (  3)  1.186454  2.168843
   N (  4)  2.247212  3.402314  2.070479
   O (  5)  2.947539  4.057463  2.640686  1.158726
   O (  6)  1.391303  2.168768  2.170430  1.687649  2.473457
 
 A cutoff of  1.0D-09 yielded   1057 shell pairs
 There are     19683 function pairs (     25881 Cartesian)
 Smallest overlap matrix eigenvalue = 4.01E-04

 Scale SEOQF with 1.000000e-01/1.000000e-01/1.000000e-01

 Standard Electronic Orientation quadrupole field applied
 Nucleus-field energy     =    -0.0000000374 hartrees
 Requested basis set is 6-31G(d)
 There are 24 shells and 84 basis functions
 A cutoff of  1.0D-09 yielded    271 shell pairs
 There are      3548 function pairs (      4078 Cartesian)
 Smallest overlap matrix eigenvalue = 4.88E-03
 Guess from superposition of atomic densities
 Warning:  Energy on first SCF cycle will be non-variational
 SAD guess density has 46.000000 electrons
 Long-range K will be added via erf
 Coulomb attenuation parameter = 0.2 bohr**(-1)
 An unrestricted hybrid HF-DFT SCF calculation will be
 performed using Relaxed Constraint Minimization + Pulay DIIS
 Exchange:     0.2220 Hartree-Fock + 1.0000 wB97X-D + LR-HF
 Correlation:  1.0000 wB97X-D
 Using Euler-Maclaurin-Lebedev (75,302) quadrature formula
 Dispersion:   Grimme D
 SCF converges when DIIS error is below 1.0E-04
 using 6 threads for integral computing
 -------------------------------------------------------
 OpenMP Integral computing Module                
 Release: version 1.0, May 2013, Q-Chem Inc. Pittsburgh 
 -------------------------------------------------------
 using 6 threads for integral computing
 -------------------------------------------------------
 OpenMP Integral computing Module                
 Release: version 1.0, May 2013, Q-Chem Inc. Pittsburgh 
 -------------------------------------------------------
 ---------------------------------------
  Cycle       Energy         DIIS Error
 ---------------------------------------
    1    -411.1344679536      9.00E-02
    2    -409.6271291732      1.98E-02
    3    -409.7338468201      4.36E-03
    4    -409.8851974159      4.56E-03
    5    -409.8910540243      6.00E-04 Done RCA. Switching to DIIS
    6    -409.8988372122      4.97E-04
    7    -409.8992119890      1.05E-04
    8    -409.8992953405      7.40E-05 Convergence criterion met
 ---------------------------------------
 <S^2> = 2.0151
 SCF time:  CPU 14.90 s  wall 2.50 s
 SCF   energy in the small basis set = -409.89929534
 Total energy in the small basis set = -409.89929534
 ----------------------------------------------------
  Cycle       Energy    
 ----------------------------------------------------
    1     -41.8092095119     -4.18E+01
 Long-range K will be added via erf
 Coulomb attenuation parameter = 0.2 bohr**(-1)
 An unrestricted hybrid HF-DFT SCF calculation will be
 performed using Relaxed Constraint Minimization + Pulay DIIS
 Exchange:     0.2220 Hartree-Fock + 1.0000 wB97X-D + LR-HF
 Correlation:  1.0000 wB97X-D
 Using Euler-Maclaurin-Lebedev (75,302) quadrature formula
 Dispersion:   Grimme D
 SCF converges when DIIS error is below 1.0E-05
 Basis2 calculation detected. Using small basis as guess for larger.
 SCFMinFind is unable to tell whether the solution found is close.
 Resetting ReadMinima to 0 and attempting to follow guess.
 SCFMinFind following SCF Guess.
 using 6 threads for integral computing
 -------------------------------------------------------
 OpenMP Integral computing Module                
 Release: version 1.0, May 2013, Q-Chem Inc. Pittsburgh 
 -------------------------------------------------------
 using 6 threads for integral computing
 -------------------------------------------------------
 OpenMP Integral computing Module                
 Release: version 1.0, May 2013, Q-Chem Inc. Pittsburgh 
 -------------------------------------------------------
 ---------------------------------------
  Cycle       Energy         DIIS Error
 ---------------------------------------
    1    -409.9925927828      8.00E-03
    2    -410.0071298622      3.85E-03
    3    -410.0255169632      9.94E-04 Done RCA. Switching to DIIS
    4    -410.0512099025      1.02E-03
    5    -410.0545494709      1.90E-04
    6    -410.0547966404      6.19E-05
    7    -410.0549069865      4.33E-05
    8    -410.0549523606      1.92E-05
    9    -410.0549781361      9.00E-06 Convergence criterion met
 ---------------------------------------
 <S^2> = 2.0175
 SCF time:  CPU 58.89 s  wall 9.84 s
 SCF   energy in the final basis set = -410.05497814
 Total energy in the final basis set = -410.05497814
 
 --------------------------------------------------------------
 
                    Orbital Energies (a.u.)
 --------------------------------------------------------------
 
 Alpha MOs
 -- Occupied --
-19.4153 -19.3976 -19.3447 -19.3387 -14.7705 -14.6162  -1.4508  -1.3738
 -1.2572  -1.2168  -0.8591  -0.7803  -0.7284  -0.7226  -0.6949  -0.6583
 -0.6354  -0.6297  -0.5003  -0.4944  -0.4619  -0.4562  -0.4482  -0.3214
 -- Virtual --
 -0.0226  -0.0003   0.0796   0.1193   0.1338   0.1357   0.1409   0.1725
  0.1811   0.1858   0.2274   0.2453   0.2539   0.2726   0.2853   0.2982
  0.3106   0.3297   0.3417   0.3464   0.3560   0.3579   0.3684   0.3929
  0.4010   0.4321   0.4404   0.4571   0.5091   0.5183   0.7473   0.7997
  0.8170   0.8243   0.8533   0.9002   0.9290   0.9636   0.9696   1.0012
  1.0140   1.0252   1.0563   1.0718   1.0845   1.1057   1.1232   1.1336
  1.1353   1.1605   1.1797   1.1909   1.2391   1.2503   1.2591   1.3134
  1.4347   1.5187   1.5458   1.5536   1.5631   1.5902   1.6124   1.6157
  1.6850   1.6981   1.7688   1.7932   1.8620   1.9308   1.9606   2.0028
  2.1391   2.1667   2.2128   2.3148   2.3596   2.3866   2.4213   2.5098
  2.5399   2.6011   2.7358   2.8329   3.5241   3.5422   3.5657   3.6369
  3.6496   3.6709   3.6977   3.7263   3.7640   3.7780   3.8118   3.8713
  3.9704   3.9840   4.0192   4.0723   4.1033   4.4385   4.4754   4.4872
  4.5116   4.6122   4.6293   4.6648   4.6960   4.7005   4.7367   4.7700
  4.8729   4.9283   4.9814   5.0020   5.0168   5.0329   5.0375   5.0651
  5.0712   5.0856   5.1225   5.1330   5.1632   5.1658   5.1965   5.2078
  5.2510   5.2692   5.3387   5.4097   5.4266   5.4410   5.4808   5.5182
  5.5363   5.6153   5.6631   5.7129   5.8313   5.9282   5.9598   6.1220
  6.2609   6.5310   6.6981   6.7015   6.7033   6.7449   6.7486   6.7806
  6.8268   6.8379   6.8866   6.9650   7.0365   7.0644   7.1002   7.1144
  7.1751   7.2035   7.2124   7.2804   7.3502   7.4379   7.5199   7.6164
  7.6196   7.7381   7.8095   7.8855   7.9549   8.2996  35.9669  36.1407
 50.0270  50.1876  50.2522  50.3028
 
 Beta MOs
 -- Occupied --
-19.4009 -19.3817 -19.3433 -19.3377 -14.7704 -14.5964  -1.4442  -1.3388
 -1.2537  -1.1831  -0.8114  -0.7455  -0.7194  -0.7117  -0.6740  -0.6163
 -0.5853  -0.5650  -0.4806  -0.4705  -0.4600  -0.4308
 -- Virtual --
 -0.1548  -0.0193   0.0083   0.0532   0.0879   0.1240   0.1390   0.1423
  0.1504   0.1760   0.1859   0.1898   0.2292   0.2493   0.2563   0.2742
  0.2895   0.3012   0.3165   0.3321   0.3442   0.3477   0.3575   0.3603
  0.3712   0.4036   0.4041   0.4339   0.4429   0.4668   0.5225   0.5276
  0.7551   0.8142   0.8247   0.8459   0.8683   0.9069   0.9370   0.9723
  0.9813   1.0113   1.0267   1.0319   1.0664   1.0837   1.0943   1.1132
  1.1367   1.1398   1.1471   1.1650   1.1864   1.2080   1.2550   1.2646
  1.2741   1.3327   1.4419   1.5319   1.5543   1.5619   1.5752   1.6033
  1.6251   1.6366   1.6960   1.7122   1.7777   1.7997   1.8791   1.9445
  1.9699   2.0135   2.1523   2.1869   2.2227   2.3258   2.3704   2.3972
  2.4432   2.5214   2.5424   2.6094   2.7438   2.8383   3.5509   3.5604
  3.5937   3.6537   3.6689   3.6812   3.7083   3.7349   3.7942   3.8136
  3.8472   3.9050   3.9905   4.0046   4.0285   4.0917   4.1141   4.4421
  4.4808   4.4928   4.5148   4.6257   4.6643   4.6930   4.7164   4.7344
  4.7574   4.8051   4.9142   4.9669   4.9973   5.0260   5.0453   5.0501
  5.0615   5.0786   5.0842   5.1025   5.1274   5.1505   5.1824   5.1933
  5.2264   5.2315   5.2638   5.2952   5.3532   5.4296   5.4346   5.4554
  5.4941   5.5426   5.5611   5.6260   5.6911   5.7233   5.8409   5.9363
  5.9961   6.1509   6.2673   6.5335   6.7103   6.7336   6.7461   6.7847
  6.8022   6.8027   6.8340   6.8438   6.8902   7.0016   7.0470   7.0793
  7.1177   7.1348   7.1786   7.2291   7.2446   7.2877   7.3590   7.4687
  7.5500   7.6324   7.6417   7.7637   7.8165   7.8922   7.9708   8.3023
 35.9906  36.1410  50.0424  50.2021  50.2534  50.3040
 --------------------------------------------------------------
 
 -----------------------------------------------------------------
                    Cartesian Multipole Moments
 -----------------------------------------------------------------
    Charge (ESU x 10^10)
                -0.0000
    Dipole Moment (Debye)
         X      -0.2404      Y      -0.9157      Z       0.0108
       Tot       0.9468
    Quadrupole Moments (Debye-Ang)
        XX     -32.5425     XY      -1.4309     YY     -33.9522
        XZ      -1.7210     YZ      -1.4795     ZZ     -32.5966
    Octopole Moments (Debye-Ang^2)
       XXX     -32.6835    XXY     -13.0116    XYY     -11.6494
       YYY     -42.0853    XXZ     -94.0389    XYZ      -5.3708
       YYZ     -92.9161    XZZ     -17.2616    YZZ     -12.6842
       ZZZ    -278.7190
    Hexadecapole Moments (Debye-Ang^3)
      XXXX    -113.1205   XXXY     -45.5863   XXYY     -70.7737
      XYYY     -49.7627   YYYY    -321.2755   XXXZ     -93.7534
      XXYZ     -17.6675   XYYZ     -31.1373   YYYZ     -49.8133
      XXZZ    -311.5789   XYZZ     -34.1853   YYZZ    -330.2463
      XZZZ    -110.0705   YZZZ     -29.5391   ZZZZ   -1724.7791
 -----------------------------------------------------------------
Archival summary:
1\1\centos77-c5\SP\ProcedureUnspecified\BasisUnspecified\42(3)\shihchen\MonJul1315:24:022020MonJul1315:24:022020\0\\#,ProcedureUnspecified,BasisUnspecified,\\0,3\N\O,1,1.18645\O,1,1.19179,2,131.553\O,1,1.3913,2,114.467,3,179.059,0\N,4,1.68765,1,93.2481,2,3.56778,0\O,5,1.15873,4,119.522,1,95.6994,0\\\@

 Total job time:  14.87s(wall), 78.09s(cpu) 
 Mon Jul 13 15:24:02 2020

        *************************************************************
        *                                                           *
        *  Thank you very much for using Q-Chem.  Have a nice day.  *
        *                                                           *
        *************************************************************


