                  Welcome to Q-Chem
     A Quantum Leap Into The Future Of Chemistry


 Q-Chem 5.3 (devel), Q-Chem, Inc., Pleasanton, CA (2020)

 Yihan Shao,  Zhengting Gan,  E. Epifanovsky,  A. T. B. Gilbert,  M. Wormit,  
 J. Kussmann,  A. W. Lange,  A. Behn,  Jia Deng,  Xintian Feng,  D. Ghosh,  
 M. Goldey,  P. R. Horn,  L. D. Jacobson,  I. Kaliman,  T. Kus,  A. Landau,  
 Jie Liu,  E. I. Proynov,  R. M. Richard,  R. P. Steele,  E. J. Sundstrom,  
 H. L. Woodcock III,  P. M. Zimmerman,  D. Zuev,  B. Alam,  B. Albrecht,  
 E. Alguire,  S. A. Baeppler,  D. Barton,  Z. Benda,  Y. A. Bernard,  
 E. J. Berquist,  K. B. Bravaya,  H. Burton,  K. Carter-Fenk,  D. Casanova,  
 Chun-Min Chang,  Yunqing Chen,  A. Chien,  K. D. Closser,  M. P. Coons,  
 S. Coriani,  S. Dasgupta,  A. L. Dempwolff,  M. Diedenhofen,  Hainam Do,  
 R. G. Edgar,  Po-Tung Fang,  S. Faraji,  S. Fatehi,  Qingguo Feng,  
 J. Fosso-Tande,  J. Gayvert,  Qinghui Ge,  A. Ghysels,  G. Gidofalvi,  
 J. Gomes,  J. Gonthier,  A. Gunina,  D. Hait,  M. W. D. Hanson-Heine,  
 P. H. P. Harbach,  A. W. Hauser,  M. F. Herbst,  J. E. Herr,  
 E. G. Hohenstein,  Z. C. Holden,  Kerwin Hui,  B. C. Huynh,  T.-C. Jagau,  
 Hyunjun Ji,  B. Kaduk,  K. Khistyaev,  Jaehoon Kim,  P. Klunzinger,  K. Koh,  
 D. Kosenkov,  L. Koulias,  T. Kowalczyk,  C. M. Krauter,  A. Kunitsa,  
 Ka Un Lao,  A. Laurent,  K. V. Lawler,  Joonho Lee,  D. Lefrancois,  
 S. Lehtola,  D. S. Levine,  Yi-Pei Li,  You-Sheng Lin,  Fenglai Liu,  
 Kuan-Yu Liu,  E. Livshits,  M. Loipersberger,  A. Luenser,  P. Manohar,  
 E. Mansoor,  S. F. Manzer,  Shan-Ping Mao,  Yuezhi Mao,  N. Mardirossian,  
 A. V. Marenich,  T. Markovich,  L. A. Martinez-Martinez,  S. A. Maurer,  
 N. J. Mayhall,  S. C. McKenzie,  J.-M. Mewes,  P. Morgante,  A. F. Morrison,  
 J. W. Mullinax,  K. Nanda,  T. S. Nguyen-Beck,  R. Olivares-Amaya,  
 K. J. Oosterbaan,  J. A. Parkhill,  S. K. Paul,  F. Pavosevic,  Zheng Pei,  
 T. M. Perrine,  F. Plasser,  P. Pokhilko,  S. Prager,  A. Prociuk,  
 E. Ramos,  B. Rana,  D. R. Rehn,  F. Rob,  M. Scheurer,  M. Schneider,  
 N. Sergueev,  S. M. Sharada,  S. Sharma,  D. W. Small,  T. Stauch,  
 C. J. Stein,  T. Stein,  Yu-Chuan Su,  S. P. Veccham,  Zhen Tao,  
 A. J. W. Thom,  A. Tkatchenko,  T. Tsuchimochi,  N. M. Tubman,  L. Vogt,  
 M. L. Vidal,  O. Vydrov,  M. A. Watson,  J. Wenzel,  M. de Wergifosse,  
 T. A. Wesolowski,  A. White,  J. Witte,  A. Yamada,  Jun Yang,  K. Yao,  
 S. Yeganeh,  S. R. Yost,  Zhi-Qiang You,  A. Zech,  Igor Ying Zhang,  
 Xing Zhang,  Yan Zhao,  Ying Zhu,  B. R. Brooks,  G. K. L. Chan,  
 C. J. Cramer,  M. S. Gordon,  W. J. Hehre,  A. Klamt,  M. W. Schmidt,  
 C. D. Sherrill,  D. G. Truhlar,  A. Aspuru-Guzik,  R. Baer,  A. T. Bell,  
 N. A. Besley,  Jeng-Da Chai,  A. E. DePrince, III,  R. A. DiStasio Jr.,  
 A. Dreuw,  B. D. Dunietz,  T. R. Furlani,  Chao-Ping Hsu,  Yousung Jung,  
 Jing Kong,  D. S. Lambrecht,  WanZhen Liang,  C. Ochsenfeld,  
 V. A. Rassolov,  L. V. Slipchenko,  J. E. Subotnik,  T. Van Voorhis,  
 J. M. Herbert,  A. I. Krylov,  P. M. W. Gill,  M. Head-Gordon

 Contributors to earlier versions of Q-Chem not listed above: 
 R. D. Adamson,  B. Austin,  J. Baker,  G. J. O. Beran,  K. Brandhorst,  
 S. T. Brown,  E. F. C. Byrd,  A. K. Chakraborty,  C.-L. Cheng,  
 Siu Hung Chien,  D. M. Chipman,  D. L. Crittenden,  H. Dachsel,  
 R. J. Doerksen,  A. D. Dutoi,  L. Fusti-Molnar,  W. A. Goddard III,  
 A. Golubeva-Zadorozhnaya,  S. R. Gwaltney,  G. Hawkins,  A. Heyden,  
 S. Hirata,  G. Kedziora,  F. J. Keil,  C. Kelley,  Jihan Kim,  R. A. King,  
 R. Z. Khaliullin,  P. P. Korambath,  W. Kurlancheek,  A. M. Lee,  M. S. Lee,  
 S. V. Levchenko,  Ching Yeh Lin,  D. Liotard,  R. C. Lochan,  I. Lotan,  
 P. E. Maslen,  N. Nair,  D. P. O'Neill,  D. Neuhauser,  E. Neuscamman,  
 C. M. Oana,  R. Olson,  B. Peters,  R. Peverati,  P. A. Pieniazek,  
 Y. M. Rhee,  J. Ritchie,  M. A. Rohrdanz,  E. Rosta,  N. J. Russ,  
 H. F. Schaefer III,  N. E. Schultz,  N. Shenvi,  A. C. Simmonett,  A. Sodt,  
 D. Stuck,  K. S. Thanthiriwatte,  V. Vanovschi,  Tao Wang,  A. Warshel,  
 C. F. Williams,  Q. Wu,  X. Xu,  W. Zhang

 Please cite Q-Chem as follows:
 Y. Shao et al., Mol. Phys. 113, 184-215 (2015)
 DOI: 10.1080/00268976.2014.952696

 Q-Chem 5.3.0 for Intel X86 EM64T Linux

 Parts of Q-Chem use Armadillo 9.800.1 (Horizon Scraper).
 http://arma.sourceforge.net/

 Q-Chem begins on Mon Jul 13 15:35:06 2020  

Host: centos77-c5
0

     Scratch files written to /tmp/29025.centos77-h1/qchem43875//
Processing $rem in /opt/qchem-5.3.0-intel2020u1//config/preferences:
Processing $rem in /home/shihchengli/.qchemrc:

Checking the input file for inconsistencies... 	...done.

--------------------------------------------------------------
User input:
--------------------------------------------------------------
$rem
   JOBTYPE  sp
   EXCHANGE   omegaB97X-D
   BASIS   6-311+G(2df,2pd)
   UNRESTRICTED   True
   max_scf_cycles   250
   geom_opt_max_cycles   1500
   basis2 6-31G*
   scf_algorithm rca_diis
   SYM_IGNORE  TRUE
   print_input   true
   geom_opt_dmax   80
   pop_mulliken false
   XC_GRID 000075000302
$end

$molecule
0 3
N       0.6694261919     1.2771074601     2.4530074854
O       0.4458129895     2.2958867783     1.8980519327
O       1.5801983109     0.9933160675     3.1337688872
N       0.0765247666     -1.2598932760     3.1575782228
O       -0.5240759573     -1.2725341564     4.1706289810
O       -0.3028951715     0.0611062364     2.2872643809
$end
--------------------------------------------------------------
 ----------------------------------------------------------------
             Standard Nuclear Orientation (Angstroms)
    I     Atom           X                Y                Z
 ----------------------------------------------------------------
    1      N       0.6694261919     1.2771074601     2.4530074854
    2      O       0.4458129895     2.2958867783     1.8980519327
    3      O       1.5801983109     0.9933160675     3.1337688872
    4      N       0.0765247666    -1.2598932760     3.1575782228
    5      O      -0.5240759573    -1.2725341564     4.1706289810
    6      O      -0.3028951715     0.0611062364     2.2872643809
 ----------------------------------------------------------------
 Nuclear Repulsion Energy =         227.89180603 hartrees
 There are       24 alpha and       22 beta electrons
 Requested basis set is 6-311+G(2df,2pd)
 There are 48 shells and 204 basis functions

 Total QAlloc Memory Limit   2000 MB
 Mega-Array Size       188 MB
 MEM_STATIC part       192 MB

                       Distance Matrix (Angstroms)
             N (  1)   O (  2)   O (  3)   N (  4)   O (  5)
   O (  2)  1.181478
   O (  3)  1.171955  2.123798
   N (  4)  2.698949  3.790297  2.708976
   O (  5)  3.297779  4.340382  3.261461  1.177775
   O (  6)  1.565739  2.388785  2.265309  1.626790  2.318314
 
 A cutoff of  1.0D-09 yielded   1018 shell pairs
 There are     18969 function pairs (     24873 Cartesian)
 Smallest overlap matrix eigenvalue = 7.10E-04

 Scale SEOQF with 1.000000e-01/1.000000e-01/1.000000e-01

 Standard Electronic Orientation quadrupole field applied
 Nucleus-field energy     =    -0.0000000358 hartrees
 Requested basis set is 6-31G(d)
 There are 24 shells and 84 basis functions
 A cutoff of  1.0D-09 yielded    265 shell pairs
 There are      3497 function pairs (      4021 Cartesian)
 Smallest overlap matrix eigenvalue = 5.68E-03
 Guess from superposition of atomic densities
 Warning:  Energy on first SCF cycle will be non-variational
 SAD guess density has 46.000000 electrons
 Long-range K will be added via erf
 Coulomb attenuation parameter = 0.2 bohr**(-1)
 An unrestricted hybrid HF-DFT SCF calculation will be
 performed using Relaxed Constraint Minimization + Pulay DIIS
 Exchange:     0.2220 Hartree-Fock + 1.0000 wB97X-D + LR-HF
 Correlation:  1.0000 wB97X-D
 Using Euler-Maclaurin-Lebedev (75,302) quadrature formula
 Dispersion:   Grimme D
 SCF converges when DIIS error is below 1.0E-04
 using 6 threads for integral computing
 -------------------------------------------------------
 OpenMP Integral computing Module                
 Release: version 1.0, May 2013, Q-Chem Inc. Pittsburgh 
 -------------------------------------------------------
 using 6 threads for integral computing
 -------------------------------------------------------
 OpenMP Integral computing Module                
 Release: version 1.0, May 2013, Q-Chem Inc. Pittsburgh 
 -------------------------------------------------------
 ---------------------------------------
  Cycle       Energy         DIIS Error
 ---------------------------------------
    1    -410.8903488523      8.65E-02
    2    -409.6538307503      1.89E-02
    3    -409.7551612680      3.97E-03
    4    -409.8968020189      4.09E-03
    5    -409.9016943208      6.61E-04 Done RCA. Switching to DIIS
    6    -409.9086634997      5.70E-04
    7    -409.9091420347      8.80E-05 Convergence criterion met
 ---------------------------------------
 <S^2> = 2.0179
 SCF time:  CPU 12.74 s  wall 2.14 s
 SCF   energy in the small basis set = -409.90914203
 Total energy in the small basis set = -409.90914203
 ----------------------------------------------------
  Cycle       Energy    
 ----------------------------------------------------
    1     -41.7116399627     -4.17E+01
 Long-range K will be added via erf
 Coulomb attenuation parameter = 0.2 bohr**(-1)
 An unrestricted hybrid HF-DFT SCF calculation will be
 performed using Relaxed Constraint Minimization + Pulay DIIS
 Exchange:     0.2220 Hartree-Fock + 1.0000 wB97X-D + LR-HF
 Correlation:  1.0000 wB97X-D
 Using Euler-Maclaurin-Lebedev (75,302) quadrature formula
 Dispersion:   Grimme D
 SCF converges when DIIS error is below 1.0E-05
 Basis2 calculation detected. Using small basis as guess for larger.
 SCFMinFind is unable to tell whether the solution found is close.
 Resetting ReadMinima to 0 and attempting to follow guess.
 SCFMinFind following SCF Guess.
 using 6 threads for integral computing
 -------------------------------------------------------
 OpenMP Integral computing Module                
 Release: version 1.0, May 2013, Q-Chem Inc. Pittsburgh 
 -------------------------------------------------------
 using 6 threads for integral computing
 -------------------------------------------------------
 OpenMP Integral computing Module                
 Release: version 1.0, May 2013, Q-Chem Inc. Pittsburgh 
 -------------------------------------------------------
 ---------------------------------------
  Cycle       Energy         DIIS Error
 ---------------------------------------
    1    -409.9978607468      8.03E-03
    2    -410.0089135407      4.13E-03
    3    -410.0301233415      1.05E-03
    4    -410.0598934404      1.14E-03
    5    -410.0617956145      1.75E-04 Done RCA. Switching to DIIS
    6    -410.0645609780      1.83E-04
    7    -410.0647867201      4.83E-05
    8    -410.0648386996      2.38E-05
    9    -410.0648659273      1.05E-05
   10    -410.0648739153      5.95E-06 Convergence criterion met
 ---------------------------------------
 <S^2> = 2.0216
 SCF time:  CPU 61.78 s  wall 10.33 s
 SCF   energy in the final basis set = -410.06487392
 Total energy in the final basis set = -410.06487392
 
 --------------------------------------------------------------
 
                    Orbital Energies (a.u.)
 --------------------------------------------------------------
 
 Alpha MOs
 -- Occupied --
-19.4007 -19.3968 -19.3634 -19.3488 -14.7666 -14.6184  -1.4400  -1.3660
 -1.2619  -1.1699  -0.8607  -0.7775  -0.7183  -0.7108  -0.6790  -0.6565
 -0.6343  -0.6290  -0.4942  -0.4818  -0.4686  -0.4596  -0.4462  -0.3384
 -- Virtual --
 -0.0241  -0.0135   0.0483   0.1005   0.1206   0.1352   0.1397   0.1678
  0.1757   0.1833   0.2270   0.2412   0.2482   0.2699   0.2776   0.2847
  0.3056   0.3352   0.3428   0.3471   0.3546   0.3608   0.3663   0.3887
  0.4024   0.4329   0.4402   0.4511   0.4949   0.5271   0.7441   0.7700
  0.8074   0.8170   0.8501   0.9097   0.9316   0.9387   0.9658   1.0117
  1.0360   1.0447   1.0605   1.0719   1.0825   1.0959   1.1214   1.1271
  1.1432   1.1493   1.1596   1.1696   1.2200   1.2515   1.2922   1.3316
  1.3929   1.4554   1.5196   1.5386   1.5729   1.5794   1.5986   1.6117
  1.6754   1.6786   1.7259   1.7548   1.8187   1.8608   1.8778   1.8863
  1.9484   2.1177   2.1697   2.2296   2.3017   2.3595   2.3992   2.4862
  2.5287   2.5470   2.6411   2.7723   3.4806   3.5484   3.5830   3.6101
  3.6339   3.6645   3.6907   3.7090   3.7490   3.7798   3.7894   3.8864
  3.9277   3.9513   4.0094   4.0210   4.0871   4.4410   4.4575   4.4799
  4.5026   4.5856   4.6540   4.6572   4.6792   4.6958   4.7597   4.8041
  4.8432   4.9388   4.9985   5.0100   5.0159   5.0322   5.0342   5.0395
  5.0552   5.0695   5.0783   5.0970   5.1174   5.1301   5.1528   5.1722
  5.1957   5.2557   5.3074   5.3582   5.4048   5.4123   5.4163   5.4509
  5.4971   5.5856   5.6543   5.6646   5.7061   5.7181   5.9530   6.0999
  6.2316   6.3545   6.5837   6.6134   6.6658   6.7214   6.7533   6.7630
  6.7889   6.8126   6.8717   6.8823   6.9183   6.9966   7.0629   7.1080
  7.1566   7.1762   7.1984   7.2515   7.2619   7.3927   7.4074   7.5644
  7.5960   7.6716   7.6963   7.8148   7.8599   8.2326  35.9019  36.1446
 49.9761  50.1463  50.2300  50.2579
 
 Beta MOs
 -- Occupied --
-19.3839 -19.3811 -19.3621 -19.3492 -14.7659 -14.6022  -1.4377  -1.3260
 -1.2602  -1.1310  -0.8208  -0.7458  -0.7094  -0.7044  -0.6737  -0.5980
 -0.5791  -0.5588  -0.4695  -0.4657  -0.4589  -0.4458
 -- Virtual --
 -0.1558  -0.0280  -0.0217   0.0332   0.0866   0.1075   0.1248   0.1406
  0.1441   0.1690   0.1794   0.1879   0.2284   0.2447   0.2514   0.2713
  0.2808   0.2873   0.3129   0.3367   0.3436   0.3496   0.3568   0.3626
  0.3702   0.3959   0.4125   0.4359   0.4461   0.4542   0.5110   0.5309
  0.7518   0.7780   0.8212   0.8349   0.8637   0.9140   0.9340   0.9453
  0.9752   1.0209   1.0444   1.0591   1.0718   1.0839   1.0922   1.1100
  1.1296   1.1416   1.1500   1.1582   1.1749   1.1858   1.2327   1.2632
  1.3050   1.3434   1.4084   1.4655   1.5249   1.5414   1.5765   1.6031
  1.6102   1.6310   1.6818   1.7019   1.7458   1.7738   1.8230   1.8667
  1.8831   1.9038   1.9640   2.1310   2.1836   2.2434   2.3157   2.3688
  2.4108   2.5003   2.5372   2.5492   2.6476   2.7761   3.4961   3.5763
  3.5997   3.6300   3.6552   3.6669   3.7063   3.7190   3.7646   3.8041
  3.8507   3.9000   3.9451   3.9848   4.0212   4.0270   4.0975   4.4432
  4.4614   4.4821   4.5047   4.6159   4.6616   4.6833   4.6996   4.7377
  4.7971   4.8273   4.8827   4.9871   5.0180   5.0309   5.0384   5.0394
  5.0515   5.0614   5.0749   5.0814   5.1014   5.1109   5.1350   5.1529
  5.1803   5.1951   5.2173   5.2855   5.3287   5.3723   5.4108   5.4154
  5.4275   5.4661   5.5244   5.6154   5.6719   5.6879   5.7188   5.7238
  5.9631   6.1402   6.2381   6.3635   6.5850   6.6571   6.7061   6.7644
  6.7906   6.7951   6.8106   6.8287   6.8733   6.8858   6.9497   7.0165
  7.0846   7.1146   7.1757   7.1981   7.2267   7.2604   7.2913   7.4081
  7.4198   7.5722   7.6228   7.7012   7.7103   7.8355   7.8624   8.2344
 35.9214  36.1456  49.9902  50.1648  50.2311  50.2578
 --------------------------------------------------------------
 
 -----------------------------------------------------------------
                    Cartesian Multipole Moments
 -----------------------------------------------------------------
    Charge (ESU x 10^10)
                 0.0000
    Dipole Moment (Debye)
         X      -0.1230      Y      -0.4412      Z       0.0992
       Tot       0.4686
    Quadrupole Moments (Debye-Ang)
        XX     -33.0693     XY      -0.6986     YY     -32.5296
        XZ      -1.3991     YZ      -0.4940     ZZ     -31.7768
    Octopole Moments (Debye-Ang^2)
       XXX     -33.2563    XXY     -12.3300    XYY     -11.1147
       YYY     -40.1788    XXZ     -95.8996    XYZ      -3.3552
       YYZ     -89.0616    XZZ     -15.9778    YZZ     -10.1456
       ZZZ    -273.8811
    Hexadecapole Moments (Debye-Ang^3)
      XXXX    -139.5586   XXXY     -65.3189   XXYY     -87.0885
      XYYY     -66.2325   YYYY    -383.2334   XXXZ     -86.0387
      XXYZ     -13.0763   XYYZ     -27.4291   YYYZ     -37.7108
      XXZZ    -320.6890   XYZZ     -34.4570   YYZZ    -329.6736
      XZZZ     -94.8571   YZZZ     -12.9730   ZZZZ   -1693.5134
 -----------------------------------------------------------------
Archival summary:
1\1\centos77-c5\SP\ProcedureUnspecified\BasisUnspecified\42(3)\shihchen\MonJul1315:35:212020MonJul1315:35:212020\0\\#,ProcedureUnspecified,BasisUnspecified,\\0,3\N\O,1,1.17196\O,1,1.18148,2,128.957\O,1,1.56574,2,110.856,3,178.125,0\N,4,1.62679,1,115.415,2,4.48689,0\O,5,1.17777,4,110.484,1,95.682,0\\\@

 Total job time:  14.72s(wall), 78.71s(cpu) 
 Mon Jul 13 15:35:21 2020

        *************************************************************
        *                                                           *
        *  Thank you very much for using Q-Chem.  Have a nice day.  *
        *                                                           *
        *************************************************************


