                  Welcome to Q-Chem
     A Quantum Leap Into The Future Of Chemistry


 Q-Chem 5.3 (devel), Q-Chem, Inc., Pleasanton, CA (2020)

 Yihan Shao,  Zhengting Gan,  E. Epifanovsky,  A. T. B. Gilbert,  M. Wormit,  
 J. Kussmann,  A. W. Lange,  A. Behn,  Jia Deng,  Xintian Feng,  D. Ghosh,  
 M. Goldey,  P. R. Horn,  L. D. Jacobson,  I. Kaliman,  T. Kus,  A. Landau,  
 Jie Liu,  E. I. Proynov,  R. M. Richard,  R. P. Steele,  E. J. Sundstrom,  
 H. L. Woodcock III,  P. M. Zimmerman,  D. Zuev,  B. Alam,  B. Albrecht,  
 E. Alguire,  S. A. Baeppler,  D. Barton,  Z. Benda,  Y. A. Bernard,  
 E. J. Berquist,  K. B. Bravaya,  H. Burton,  K. Carter-Fenk,  D. Casanova,  
 Chun-Min Chang,  Yunqing Chen,  A. Chien,  K. D. Closser,  M. P. Coons,  
 S. Coriani,  S. Dasgupta,  A. L. Dempwolff,  M. Diedenhofen,  Hainam Do,  
 R. G. Edgar,  Po-Tung Fang,  S. Faraji,  S. Fatehi,  Qingguo Feng,  
 J. Fosso-Tande,  J. Gayvert,  Qinghui Ge,  A. Ghysels,  G. Gidofalvi,  
 J. Gomes,  J. Gonthier,  A. Gunina,  D. Hait,  M. W. D. Hanson-Heine,  
 P. H. P. Harbach,  A. W. Hauser,  M. F. Herbst,  J. E. Herr,  
 E. G. Hohenstein,  Z. C. Holden,  Kerwin Hui,  B. C. Huynh,  T.-C. Jagau,  
 Hyunjun Ji,  B. Kaduk,  K. Khistyaev,  Jaehoon Kim,  P. Klunzinger,  K. Koh,  
 D. Kosenkov,  L. Koulias,  T. Kowalczyk,  C. M. Krauter,  A. Kunitsa,  
 Ka Un Lao,  A. Laurent,  K. V. Lawler,  Joonho Lee,  D. Lefrancois,  
 S. Lehtola,  D. S. Levine,  Yi-Pei Li,  You-Sheng Lin,  Fenglai Liu,  
 Kuan-Yu Liu,  E. Livshits,  M. Loipersberger,  A. Luenser,  P. Manohar,  
 E. Mansoor,  S. F. Manzer,  Shan-Ping Mao,  Yuezhi Mao,  N. Mardirossian,  
 A. V. Marenich,  T. Markovich,  L. A. Martinez-Martinez,  S. A. Maurer,  
 N. J. Mayhall,  S. C. McKenzie,  J.-M. Mewes,  P. Morgante,  A. F. Morrison,  
 J. W. Mullinax,  K. Nanda,  T. S. Nguyen-Beck,  R. Olivares-Amaya,  
 K. J. Oosterbaan,  J. A. Parkhill,  S. K. Paul,  F. Pavosevic,  Zheng Pei,  
 T. M. Perrine,  F. Plasser,  P. Pokhilko,  S. Prager,  A. Prociuk,  
 E. Ramos,  B. Rana,  D. R. Rehn,  F. Rob,  M. Scheurer,  M. Schneider,  
 N. Sergueev,  S. M. Sharada,  S. Sharma,  D. W. Small,  T. Stauch,  
 C. J. Stein,  T. Stein,  Yu-Chuan Su,  S. P. Veccham,  Zhen Tao,  
 A. J. W. Thom,  A. Tkatchenko,  T. Tsuchimochi,  N. M. Tubman,  L. Vogt,  
 M. L. Vidal,  O. Vydrov,  M. A. Watson,  J. Wenzel,  M. de Wergifosse,  
 T. A. Wesolowski,  A. White,  J. Witte,  A. Yamada,  Jun Yang,  K. Yao,  
 S. Yeganeh,  S. R. Yost,  Zhi-Qiang You,  A. Zech,  Igor Ying Zhang,  
 Xing Zhang,  Yan Zhao,  Ying Zhu,  B. R. Brooks,  G. K. L. Chan,  
 C. J. Cramer,  M. S. Gordon,  W. J. Hehre,  A. Klamt,  M. W. Schmidt,  
 C. D. Sherrill,  D. G. Truhlar,  A. Aspuru-Guzik,  R. Baer,  A. T. Bell,  
 N. A. Besley,  Jeng-Da Chai,  A. E. DePrince, III,  R. A. DiStasio Jr.,  
 A. Dreuw,  B. D. Dunietz,  T. R. Furlani,  Chao-Ping Hsu,  Yousung Jung,  
 Jing Kong,  D. S. Lambrecht,  WanZhen Liang,  C. Ochsenfeld,  
 V. A. Rassolov,  L. V. Slipchenko,  J. E. Subotnik,  T. Van Voorhis,  
 J. M. Herbert,  A. I. Krylov,  P. M. W. Gill,  M. Head-Gordon

 Contributors to earlier versions of Q-Chem not listed above: 
 R. D. Adamson,  B. Austin,  J. Baker,  G. J. O. Beran,  K. Brandhorst,  
 S. T. Brown,  E. F. C. Byrd,  A. K. Chakraborty,  C.-L. Cheng,  
 Siu Hung Chien,  D. M. Chipman,  D. L. Crittenden,  H. Dachsel,  
 R. J. Doerksen,  A. D. Dutoi,  L. Fusti-Molnar,  W. A. Goddard III,  
 A. Golubeva-Zadorozhnaya,  S. R. Gwaltney,  G. Hawkins,  A. Heyden,  
 S. Hirata,  G. Kedziora,  F. J. Keil,  C. Kelley,  Jihan Kim,  R. A. King,  
 R. Z. Khaliullin,  P. P. Korambath,  W. Kurlancheek,  A. M. Lee,  M. S. Lee,  
 S. V. Levchenko,  Ching Yeh Lin,  D. Liotard,  R. C. Lochan,  I. Lotan,  
 P. E. Maslen,  N. Nair,  D. P. O'Neill,  D. Neuhauser,  E. Neuscamman,  
 C. M. Oana,  R. Olson,  B. Peters,  R. Peverati,  P. A. Pieniazek,  
 Y. M. Rhee,  J. Ritchie,  M. A. Rohrdanz,  E. Rosta,  N. J. Russ,  
 H. F. Schaefer III,  N. E. Schultz,  N. Shenvi,  A. C. Simmonett,  A. Sodt,  
 D. Stuck,  K. S. Thanthiriwatte,  V. Vanovschi,  Tao Wang,  A. Warshel,  
 C. F. Williams,  Q. Wu,  X. Xu,  W. Zhang

 Please cite Q-Chem as follows:
 Y. Shao et al., Mol. Phys. 113, 184-215 (2015)
 DOI: 10.1080/00268976.2014.952696

 Q-Chem 5.3.0 for Intel X86 EM64T Linux

 Parts of Q-Chem use Armadillo 9.800.1 (Horizon Scraper).
 http://arma.sourceforge.net/

 Q-Chem begins on Mon Jul 13 15:52:40 2020  

Host: centos77-c5
0

     Scratch files written to /tmp/29025.centos77-h1/qchem93146//
Processing $rem in /opt/qchem-5.3.0-intel2020u1//config/preferences:
Processing $rem in /home/shihchengli/.qchemrc:

Checking the input file for inconsistencies... 	...done.

--------------------------------------------------------------
User input:
--------------------------------------------------------------
$rem
   JOBTYPE  sp
   EXCHANGE   omegaB97X-D
   BASIS   6-311+G(2df,2pd)
   UNRESTRICTED   True
   max_scf_cycles   250
   geom_opt_max_cycles   1500
   basis2 6-31G*
   scf_algorithm rca_diis
   SYM_IGNORE  TRUE
   print_input   true
   geom_opt_dmax   80
   pop_mulliken false
   XC_GRID 000075000302
$end

$molecule
0 3
N       0.7219437705     1.1797251476     2.5145111408
O       0.3707563365     2.2002885470     1.8443336296
O       1.5784302256     0.9887734050     3.1756115984
N       0.0337776708     -1.1490535452     3.1401457976
O       -0.4736058920     -1.3232542444     4.1714482545
O       -0.2863109813     0.1985097999     2.2542494689
$end
--------------------------------------------------------------
 ----------------------------------------------------------------
             Standard Nuclear Orientation (Angstroms)
    I     Atom           X                Y                Z
 ----------------------------------------------------------------
    1      N       0.7219437705     1.1797251476     2.5145111408
    2      O       0.3707563365     2.2002885470     1.8443336296
    3      O       1.5784302256     0.9887734050     3.1756115984
    4      N       0.0337776708    -1.1490535452     3.1401457976
    5      O      -0.4736058920    -1.3232542444     4.1714482545
    6      O      -0.2863109813     0.1985097999     2.2542494689
 ----------------------------------------------------------------
 Nuclear Repulsion Energy =         232.20006225 hartrees
 There are       24 alpha and       22 beta electrons
 Requested basis set is 6-311+G(2df,2pd)
 There are 48 shells and 204 basis functions

 Total QAlloc Memory Limit   2000 MB
 Mega-Array Size       188 MB
 MEM_STATIC part       192 MB

                       Distance Matrix (Angstroms)
             N (  1)   O (  2)   O (  3)   N (  4)   O (  5)
   O (  2)  1.270441
   O (  3)  1.098674  2.167613
   N (  4)  2.507629  3.607045  2.637710
   O (  5)  3.231050  4.306247  3.247771  1.162484
   O (  6)  1.430768  2.146366  2.225013  1.644140  2.454892
 
 A cutoff of  1.0D-09 yielded   1027 shell pairs
 There are     19169 function pairs (     25159 Cartesian)
 Smallest overlap matrix eigenvalue = 6.28E-04

 Scale SEOQF with 1.000000e-01/1.000000e-01/1.000000e-01

 Standard Electronic Orientation quadrupole field applied
 Nucleus-field energy     =    -0.0000000363 hartrees
 Requested basis set is 6-31G(d)
 There are 24 shells and 84 basis functions
 A cutoff of  1.0D-09 yielded    269 shell pairs
 There are      3538 function pairs (      4066 Cartesian)
 Smallest overlap matrix eigenvalue = 4.17E-03
 Guess from superposition of atomic densities
 Warning:  Energy on first SCF cycle will be non-variational
 SAD guess density has 46.000000 electrons
 Long-range K will be added via erf
 Coulomb attenuation parameter = 0.2 bohr**(-1)
 An unrestricted hybrid HF-DFT SCF calculation will be
 performed using Relaxed Constraint Minimization + Pulay DIIS
 Exchange:     0.2220 Hartree-Fock + 1.0000 wB97X-D + LR-HF
 Correlation:  1.0000 wB97X-D
 Using Euler-Maclaurin-Lebedev (75,302) quadrature formula
 Dispersion:   Grimme D
 SCF converges when DIIS error is below 1.0E-04
 using 6 threads for integral computing
 -------------------------------------------------------
 OpenMP Integral computing Module                
 Release: version 1.0, May 2013, Q-Chem Inc. Pittsburgh 
 -------------------------------------------------------
 using 6 threads for integral computing
 -------------------------------------------------------
 OpenMP Integral computing Module                
 Release: version 1.0, May 2013, Q-Chem Inc. Pittsburgh 
 -------------------------------------------------------
 ---------------------------------------
  Cycle       Energy         DIIS Error
 ---------------------------------------
    1    -411.0865470903      9.06E-02
    2    -409.6416526377      1.94E-02
    3    -409.7395278773      5.21E-03
    4    -409.8822331939      6.14E-03
    5    -409.8924662955      8.57E-04 Done RCA. Switching to DIIS
    6    -409.9054776596      9.33E-04
    7    -409.9061465347      2.06E-04
    8    -409.9062681934      8.67E-05 Convergence criterion met
 ---------------------------------------
 <S^2> = 2.0155
 SCF time:  CPU 14.12 s  wall 2.37 s
 SCF   energy in the small basis set = -409.90626819
 Total energy in the small basis set = -409.90626819
 ----------------------------------------------------
  Cycle       Energy    
 ----------------------------------------------------
    1     -41.7782561753     -4.18E+01
 Long-range K will be added via erf
 Coulomb attenuation parameter = 0.2 bohr**(-1)
 An unrestricted hybrid HF-DFT SCF calculation will be
 performed using Relaxed Constraint Minimization + Pulay DIIS
 Exchange:     0.2220 Hartree-Fock + 1.0000 wB97X-D + LR-HF
 Correlation:  1.0000 wB97X-D
 Using Euler-Maclaurin-Lebedev (75,302) quadrature formula
 Dispersion:   Grimme D
 SCF converges when DIIS error is below 1.0E-05
 Basis2 calculation detected. Using small basis as guess for larger.
 SCFMinFind is unable to tell whether the solution found is close.
 Resetting ReadMinima to 0 and attempting to follow guess.
 SCFMinFind following SCF Guess.
 using 6 threads for integral computing
 -------------------------------------------------------
 OpenMP Integral computing Module                
 Release: version 1.0, May 2013, Q-Chem Inc. Pittsburgh 
 -------------------------------------------------------
 using 6 threads for integral computing
 -------------------------------------------------------
 OpenMP Integral computing Module                
 Release: version 1.0, May 2013, Q-Chem Inc. Pittsburgh 
 -------------------------------------------------------
 ---------------------------------------
  Cycle       Energy         DIIS Error
 ---------------------------------------
    1    -409.9824020686      8.18E-03
    2    -409.9543765119      5.59E-03
    3    -409.9887997139      2.12E-03
    4    -410.0428487146      8.73E-04 Done RCA. Switching to DIIS
    5    -410.0552589464      1.54E-03
    6    -410.0636285559      2.30E-04
    7    -410.0640202610      1.27E-04
    8    -410.0642287639      6.34E-05
    9    -410.0643329489      2.63E-05
   10    -410.0643551461      1.07E-05
   11    -410.0643620711      5.56E-06 Convergence criterion met
 ---------------------------------------
 <S^2> = 2.0179
 SCF time:  CPU 67.42 s  wall 11.26 s
 SCF   energy in the final basis set = -410.06436207
 Total energy in the final basis set = -410.06436207
 
 --------------------------------------------------------------
 
                    Orbital Energies (a.u.)
 --------------------------------------------------------------
 
 Alpha MOs
 -- Occupied --
-19.4097 -19.3975 -19.3771 -19.3307 -14.7736 -14.6164  -1.4799  -1.3727
 -1.2606  -1.1878  -0.8687  -0.7796  -0.7336  -0.7303  -0.6953  -0.6567
 -0.6375  -0.6332  -0.5032  -0.4967  -0.4723  -0.4548  -0.4268  -0.3380
 -- Virtual --
 -0.0207   0.0145   0.0717   0.1120   0.1229   0.1352   0.1374   0.1713
  0.1766   0.1854   0.2257   0.2397   0.2501   0.2513   0.2715   0.2857
  0.3030   0.3227   0.3373   0.3432   0.3525   0.3586   0.3661   0.3810
  0.3962   0.4322   0.4415   0.4675   0.4975   0.5874   0.7304   0.7549
  0.8013   0.8268   0.8634   0.8748   0.9208   0.9484   0.9740   1.0211
  1.0330   1.0486   1.0552   1.0733   1.0746   1.0808   1.1259   1.1277
  1.1469   1.1602   1.1632   1.1638   1.2189   1.2494   1.2576   1.3079
  1.4419   1.4824   1.5038   1.5572   1.5634   1.5857   1.6001   1.6280
  1.6498   1.6817   1.7146   1.7929   1.8089   1.8963   1.9261   1.9533
  1.9907   2.1284   2.1886   2.2462   2.3468   2.3709   2.4422   2.4813
  2.5300   2.5864   2.6901   2.7938   3.5004   3.5383   3.5745   3.5996
  3.6263   3.6593   3.6728   3.7035   3.7191   3.7676   3.7953   3.8881
  3.9529   3.9895   4.0613   4.0672   4.0806   4.3482   4.3863   4.4406
  4.5185   4.5872   4.6348   4.6737   4.6998   4.7269   4.7589   4.8099
  4.8435   4.9059   4.9884   5.0085   5.0134   5.0212   5.0343   5.0470
  5.0741   5.0914   5.0957   5.1094   5.1173   5.1556   5.1774   5.1913
  5.2013   5.2653   5.2758   5.3728   5.4183   5.4245   5.4704   5.4956
  5.5385   5.5467   5.6322   5.6566   5.8440   5.8565   5.9633   6.1124
  6.3116   6.4560   6.6674   6.6822   6.7126   6.7294   6.7398   6.7510
  6.7958   6.8224   6.8734   6.9625   7.0125   7.0891   7.1217   7.1289
  7.1662   7.1757   7.1998   7.2598   7.2983   7.3808   7.4825   7.5502
  7.6522   7.7081   7.7916   7.8772   7.9651   8.3581  35.9344  36.1596
 49.9885  50.1420  50.1787  50.4045
 
 Beta MOs
 -- Occupied --
-19.3966 -19.3798 -19.3776 -19.3278 -14.7733 -14.5988  -1.4780  -1.3351
 -1.2488  -1.1602  -0.8266  -0.7492  -0.7326  -0.7157  -0.6813  -0.6074
 -0.5844  -0.5609  -0.4870  -0.4780  -0.4486  -0.4355
 -- Virtual --
 -0.1462  -0.0186  -0.0076   0.0646   0.0832   0.1200   0.1344   0.1393
  0.1411   0.1734   0.1808   0.1898   0.2268   0.2438   0.2526   0.2536
  0.2740   0.2892   0.3104   0.3246   0.3388   0.3449   0.3546   0.3610
  0.3674   0.3849   0.4074   0.4365   0.4459   0.4712   0.5167   0.5932
  0.7420   0.7616   0.8156   0.8462   0.8714   0.8846   0.9239   0.9543
  0.9865   1.0299   1.0396   1.0597   1.0658   1.0812   1.0920   1.0990
  1.1319   1.1410   1.1558   1.1677   1.1727   1.1818   1.2310   1.2586
  1.2715   1.3230   1.4600   1.4938   1.5076   1.5631   1.5673   1.5971
  1.6178   1.6497   1.6655   1.7078   1.7247   1.7971   1.8162   1.9076
  1.9315   1.9683   2.0076   2.1422   2.1999   2.2598   2.3589   2.3819
  2.4584   2.4879   2.5421   2.5928   2.6967   2.7977   3.5243   3.5721
  3.5916   3.6142   3.6426   3.6627   3.6859   3.7165   3.7318   3.7972
  3.8619   3.9081   3.9797   4.0030   4.0680   4.0815   4.0964   4.3541
  4.3894   4.4414   4.5234   4.6141   4.6696   4.6946   4.7246   4.7618
  4.7812   4.8354   4.8833   4.9552   4.9984   5.0222   5.0266   5.0458
  5.0649   5.0668   5.0867   5.0998   5.1121   5.1227   5.1409   5.1783
  5.2061   5.2100   5.2196   5.2873   5.2991   5.3948   5.4219   5.4366
  5.4779   5.5199   5.5576   5.5704   5.6482   5.6789   5.8496   5.8597
  5.9805   6.1531   6.3236   6.4591   6.6868   6.7244   6.7385   6.7554
  6.7932   6.8044   6.8071   6.8297   6.8785   6.9917   7.0268   7.1050
  7.1292   7.1399   7.1755   7.2049   7.2259   7.2697   7.3204   7.3977
  7.5084   7.5610   7.6702   7.7363   7.8133   7.8881   7.9738   8.3600
 35.9556  36.1600  50.0018  50.1454  50.1953  50.4041
 --------------------------------------------------------------
 
 -----------------------------------------------------------------
                    Cartesian Multipole Moments
 -----------------------------------------------------------------
    Charge (ESU x 10^10)
                -0.0000
    Dipole Moment (Debye)
         X       0.3842      Y      -1.0644      Z       0.6026
       Tot       1.2821
    Quadrupole Moments (Debye-Ang)
        XX     -31.8656     XY      -0.4599     YY     -34.7558
        XZ       0.3166     YZ      -0.6761     ZZ     -29.5614
    Octopole Moments (Debye-Ang^2)
       XXX     -31.0919    XXY     -11.9927    XYY     -11.0259
       YYY     -44.8318    XXZ     -92.0910    XYZ      -1.9947
       YYZ     -93.4961    XZZ     -10.4415    YZZ      -7.3597
       ZZZ    -265.8628
    Hexadecapole Moments (Debye-Ang^3)
      XXXX    -132.1343   XXXY     -59.6436   XXYY     -82.6071
      XYYY     -64.6846   YYYY    -374.4898   XXXZ     -82.4371
      XXYZ     -11.0705   XYYZ     -26.1350   YYYZ     -45.4847
      XXZZ    -309.0701   XYZZ     -28.0538   YYZZ    -336.6436
      XZZZ     -79.4373   YZZZ       3.9033   ZZZZ   -1669.1692
 -----------------------------------------------------------------
Archival summary:
1\1\centos77-c5\SP\ProcedureUnspecified\BasisUnspecified\42(3)\shihchen\MonJul1315:52:562020MonJul1315:52:562020\0\\#,ProcedureUnspecified,BasisUnspecified,\\0,3\N\O,1,1.09867\O,1,1.27044,2,132.263\O,1,1.43077,2,122.658,3,-179.733,0\N,4,1.64414,1,109.08,2,2.61103,0\O,5,1.16248,4,121.055,1,95.6949,0\\\@

 Total job time:  15.98s(wall), 85.61s(cpu) 
 Mon Jul 13 15:52:56 2020

        *************************************************************
        *                                                           *
        *  Thank you very much for using Q-Chem.  Have a nice day.  *
        *                                                           *
        *************************************************************


