                  Welcome to Q-Chem
     A Quantum Leap Into The Future Of Chemistry


 Q-Chem 5.3 (devel), Q-Chem, Inc., Pleasanton, CA (2020)

 Yihan Shao,  Zhengting Gan,  E. Epifanovsky,  A. T. B. Gilbert,  M. Wormit,  
 J. Kussmann,  A. W. Lange,  A. Behn,  Jia Deng,  Xintian Feng,  D. Ghosh,  
 M. Goldey,  P. R. Horn,  L. D. Jacobson,  I. Kaliman,  T. Kus,  A. Landau,  
 Jie Liu,  E. I. Proynov,  R. M. Richard,  R. P. Steele,  E. J. Sundstrom,  
 H. L. Woodcock III,  P. M. Zimmerman,  D. Zuev,  B. Alam,  B. Albrecht,  
 E. Alguire,  S. A. Baeppler,  D. Barton,  Z. Benda,  Y. A. Bernard,  
 E. J. Berquist,  K. B. Bravaya,  H. Burton,  K. Carter-Fenk,  D. Casanova,  
 Chun-Min Chang,  Yunqing Chen,  A. Chien,  K. D. Closser,  M. P. Coons,  
 S. Coriani,  S. Dasgupta,  A. L. Dempwolff,  M. Diedenhofen,  Hainam Do,  
 R. G. Edgar,  Po-Tung Fang,  S. Faraji,  S. Fatehi,  Qingguo Feng,  
 J. Fosso-Tande,  J. Gayvert,  Qinghui Ge,  A. Ghysels,  G. Gidofalvi,  
 J. Gomes,  J. Gonthier,  A. Gunina,  D. Hait,  M. W. D. Hanson-Heine,  
 P. H. P. Harbach,  A. W. Hauser,  M. F. Herbst,  J. E. Herr,  
 E. G. Hohenstein,  Z. C. Holden,  Kerwin Hui,  B. C. Huynh,  T.-C. Jagau,  
 Hyunjun Ji,  B. Kaduk,  K. Khistyaev,  Jaehoon Kim,  P. Klunzinger,  K. Koh,  
 D. Kosenkov,  L. Koulias,  T. Kowalczyk,  C. M. Krauter,  A. Kunitsa,  
 Ka Un Lao,  A. Laurent,  K. V. Lawler,  Joonho Lee,  D. Lefrancois,  
 S. Lehtola,  D. S. Levine,  Yi-Pei Li,  You-Sheng Lin,  Fenglai Liu,  
 Kuan-Yu Liu,  E. Livshits,  M. Loipersberger,  A. Luenser,  P. Manohar,  
 E. Mansoor,  S. F. Manzer,  Shan-Ping Mao,  Yuezhi Mao,  N. Mardirossian,  
 A. V. Marenich,  T. Markovich,  L. A. Martinez-Martinez,  S. A. Maurer,  
 N. J. Mayhall,  S. C. McKenzie,  J.-M. Mewes,  P. Morgante,  A. F. Morrison,  
 J. W. Mullinax,  K. Nanda,  T. S. Nguyen-Beck,  R. Olivares-Amaya,  
 K. J. Oosterbaan,  J. A. Parkhill,  S. K. Paul,  F. Pavosevic,  Zheng Pei,  
 T. M. Perrine,  F. Plasser,  P. Pokhilko,  S. Prager,  A. Prociuk,  
 E. Ramos,  B. Rana,  D. R. Rehn,  F. Rob,  M. Scheurer,  M. Schneider,  
 N. Sergueev,  S. M. Sharada,  S. Sharma,  D. W. Small,  T. Stauch,  
 C. J. Stein,  T. Stein,  Yu-Chuan Su,  S. P. Veccham,  Zhen Tao,  
 A. J. W. Thom,  A. Tkatchenko,  T. Tsuchimochi,  N. M. Tubman,  L. Vogt,  
 M. L. Vidal,  O. Vydrov,  M. A. Watson,  J. Wenzel,  M. de Wergifosse,  
 T. A. Wesolowski,  A. White,  J. Witte,  A. Yamada,  Jun Yang,  K. Yao,  
 S. Yeganeh,  S. R. Yost,  Zhi-Qiang You,  A. Zech,  Igor Ying Zhang,  
 Xing Zhang,  Yan Zhao,  Ying Zhu,  B. R. Brooks,  G. K. L. Chan,  
 C. J. Cramer,  M. S. Gordon,  W. J. Hehre,  A. Klamt,  M. W. Schmidt,  
 C. D. Sherrill,  D. G. Truhlar,  A. Aspuru-Guzik,  R. Baer,  A. T. Bell,  
 N. A. Besley,  Jeng-Da Chai,  A. E. DePrince, III,  R. A. DiStasio Jr.,  
 A. Dreuw,  B. D. Dunietz,  T. R. Furlani,  Chao-Ping Hsu,  Yousung Jung,  
 Jing Kong,  D. S. Lambrecht,  WanZhen Liang,  C. Ochsenfeld,  
 V. A. Rassolov,  L. V. Slipchenko,  J. E. Subotnik,  T. Van Voorhis,  
 J. M. Herbert,  A. I. Krylov,  P. M. W. Gill,  M. Head-Gordon

 Contributors to earlier versions of Q-Chem not listed above: 
 R. D. Adamson,  B. Austin,  J. Baker,  G. J. O. Beran,  K. Brandhorst,  
 S. T. Brown,  E. F. C. Byrd,  A. K. Chakraborty,  C.-L. Cheng,  
 Siu Hung Chien,  D. M. Chipman,  D. L. Crittenden,  H. Dachsel,  
 R. J. Doerksen,  A. D. Dutoi,  L. Fusti-Molnar,  W. A. Goddard III,  
 A. Golubeva-Zadorozhnaya,  S. R. Gwaltney,  G. Hawkins,  A. Heyden,  
 S. Hirata,  G. Kedziora,  F. J. Keil,  C. Kelley,  Jihan Kim,  R. A. King,  
 R. Z. Khaliullin,  P. P. Korambath,  W. Kurlancheek,  A. M. Lee,  M. S. Lee,  
 S. V. Levchenko,  Ching Yeh Lin,  D. Liotard,  R. C. Lochan,  I. Lotan,  
 P. E. Maslen,  N. Nair,  D. P. O'Neill,  D. Neuhauser,  E. Neuscamman,  
 C. M. Oana,  R. Olson,  B. Peters,  R. Peverati,  P. A. Pieniazek,  
 Y. M. Rhee,  J. Ritchie,  M. A. Rohrdanz,  E. Rosta,  N. J. Russ,  
 H. F. Schaefer III,  N. E. Schultz,  N. Shenvi,  A. C. Simmonett,  A. Sodt,  
 D. Stuck,  K. S. Thanthiriwatte,  V. Vanovschi,  Tao Wang,  A. Warshel,  
 C. F. Williams,  Q. Wu,  X. Xu,  W. Zhang

 Please cite Q-Chem as follows:
 Y. Shao et al., Mol. Phys. 113, 184-215 (2015)
 DOI: 10.1080/00268976.2014.952696

 Q-Chem 5.3.0 for Intel X86 EM64T Linux

 Parts of Q-Chem use Armadillo 9.800.1 (Horizon Scraper).
 http://arma.sourceforge.net/

 Q-Chem begins on Mon Jul 13 15:28:12 2020  

Host: centos77-c5
0

     Scratch files written to /tmp/29025.centos77-h1/qchem51496//
Processing $rem in /opt/qchem-5.3.0-intel2020u1//config/preferences:
Processing $rem in /home/shihchengli/.qchemrc:

Checking the input file for inconsistencies... 	...done.

--------------------------------------------------------------
User input:
--------------------------------------------------------------
$rem
   JOBTYPE  sp
   EXCHANGE   omegaB97X-D
   BASIS   6-311+G(2df,2pd)
   UNRESTRICTED   True
   max_scf_cycles   250
   geom_opt_max_cycles   1500
   basis2 6-31G*
   scf_algorithm rca_diis
   SYM_IGNORE  TRUE
   print_input   true
   geom_opt_dmax   80
   pop_mulliken false
   XC_GRID 000075000302
$end

$molecule
0 3
N       0.6844231590     1.1940722928     2.4875064875
O       0.3502620683     2.1649826650     1.8809845070
O       1.6155682101     0.9758608616     3.1860162477
N       0.0618264087     -1.1758665202     3.1285703773
O       -0.4952159272     -1.2615659033     4.1513324624
O       -0.2718727888     0.1975057140     2.2658898081
$end
--------------------------------------------------------------
 ----------------------------------------------------------------
             Standard Nuclear Orientation (Angstroms)
    I     Atom           X                Y                Z
 ----------------------------------------------------------------
    1      N       0.6844231590     1.1940722928     2.4875064875
    2      O       0.3502620683     2.1649826650     1.8809845070
    3      O       1.6155682101     0.9758608616     3.1860162477
    4      N       0.0618264087    -1.1758665202     3.1285703773
    5      O      -0.4952159272    -1.2615659033     4.1513324624
    6      O      -0.2718727888     0.1975057140     2.2658898081
 ----------------------------------------------------------------
 Nuclear Repulsion Energy =         232.86364809 hartrees
 There are       24 alpha and       22 beta electrons
 Requested basis set is 6-311+G(2df,2pd)
 There are 48 shells and 204 basis functions

 Total QAlloc Memory Limit   2000 MB
 Mega-Array Size       188 MB
 MEM_STATIC part       192 MB

                       Distance Matrix (Angstroms)
             N (  1)   O (  2)   O (  3)   N (  4)   O (  5)
   O (  2)  1.192560
   O (  3)  1.184299  2.172123
   N (  4)  2.532824  3.577840  2.654683
   O (  5)  3.192182  4.196492  3.223868  1.167768
   O (  6)  1.398843  2.099088  2.239398  1.655815  2.394507
 
 A cutoff of  1.0D-09 yielded   1031 shell pairs
 There are     19228 function pairs (     25239 Cartesian)
 Smallest overlap matrix eigenvalue = 6.89E-04

 Scale SEOQF with 1.000000e-01/1.000000e-01/1.000000e-01

 Standard Electronic Orientation quadrupole field applied
 Nucleus-field energy     =    -0.0000000363 hartrees
 Requested basis set is 6-31G(d)
 There are 24 shells and 84 basis functions
 A cutoff of  1.0D-09 yielded    268 shell pairs
 There are      3534 function pairs (      4062 Cartesian)
 Smallest overlap matrix eigenvalue = 4.79E-03
 Guess from superposition of atomic densities
 Warning:  Energy on first SCF cycle will be non-variational
 SAD guess density has 46.000000 electrons
 Long-range K will be added via erf
 Coulomb attenuation parameter = 0.2 bohr**(-1)
 An unrestricted hybrid HF-DFT SCF calculation will be
 performed using Relaxed Constraint Minimization + Pulay DIIS
 Exchange:     0.2220 Hartree-Fock + 1.0000 wB97X-D + LR-HF
 Correlation:  1.0000 wB97X-D
 Using Euler-Maclaurin-Lebedev (75,302) quadrature formula
 Dispersion:   Grimme D
 SCF converges when DIIS error is below 1.0E-04
 using 6 threads for integral computing
 -------------------------------------------------------
 OpenMP Integral computing Module                
 Release: version 1.0, May 2013, Q-Chem Inc. Pittsburgh 
 -------------------------------------------------------
 using 6 threads for integral computing
 -------------------------------------------------------
 OpenMP Integral computing Module                
 Release: version 1.0, May 2013, Q-Chem Inc. Pittsburgh 
 -------------------------------------------------------
 ---------------------------------------
  Cycle       Energy         DIIS Error
 ---------------------------------------
    1    -411.0553391411      8.89E-02
    2    -409.6604039446      1.95E-02
    3    -409.7636346593      4.42E-03
    4    -409.9110586921      4.60E-03
    5    -409.9170748646      6.20E-04 Done RCA. Switching to DIIS
    6    -409.9250838457      5.05E-04
    7    -409.9254777264      1.05E-04
    8    -409.9255729803      6.21E-05 Convergence criterion met
 ---------------------------------------
 <S^2> = 2.0166
 SCF time:  CPU 14.38 s  wall 2.41 s
 SCF   energy in the small basis set = -409.92557298
 Total energy in the small basis set = -409.92557298
 ----------------------------------------------------
  Cycle       Energy    
 ----------------------------------------------------
    1     -41.7642832936     -4.18E+01
 Long-range K will be added via erf
 Coulomb attenuation parameter = 0.2 bohr**(-1)
 An unrestricted hybrid HF-DFT SCF calculation will be
 performed using Relaxed Constraint Minimization + Pulay DIIS
 Exchange:     0.2220 Hartree-Fock + 1.0000 wB97X-D + LR-HF
 Correlation:  1.0000 wB97X-D
 Using Euler-Maclaurin-Lebedev (75,302) quadrature formula
 Dispersion:   Grimme D
 SCF converges when DIIS error is below 1.0E-05
 Basis2 calculation detected. Using small basis as guess for larger.
 SCFMinFind is unable to tell whether the solution found is close.
 Resetting ReadMinima to 0 and attempting to follow guess.
 SCFMinFind following SCF Guess.
 using 6 threads for integral computing
 -------------------------------------------------------
 OpenMP Integral computing Module                
 Release: version 1.0, May 2013, Q-Chem Inc. Pittsburgh 
 -------------------------------------------------------
 using 6 threads for integral computing
 -------------------------------------------------------
 OpenMP Integral computing Module                
 Release: version 1.0, May 2013, Q-Chem Inc. Pittsburgh 
 -------------------------------------------------------
 ---------------------------------------
  Cycle       Energy         DIIS Error
 ---------------------------------------
    1    -410.0094426246      8.07E-03
    2    -410.0121086346      4.51E-03
    3    -410.0365420991      1.36E-03
    4    -410.0721981057      1.20E-03
    5    -410.0754169417      1.98E-04 Done RCA. Switching to DIIS
    6    -410.0801481626      2.62E-04
    7    -410.0805503212      6.64E-05
    8    -410.0807052014      2.73E-05
    9    -410.0807572506      1.60E-05
   10    -410.0807729817      8.67E-06 Convergence criterion met
 ---------------------------------------
 <S^2> = 2.0191
 SCF time:  CPU 65.97 s  wall 11.03 s
 SCF   energy in the final basis set = -410.08077298
 Total energy in the final basis set = -410.08077298
 
 --------------------------------------------------------------
 
                    Orbital Energies (a.u.)
 --------------------------------------------------------------
 
 Alpha MOs
 -- Occupied --
-19.4143 -19.4013 -19.3502 -19.3478 -14.7751 -14.6167  -1.4483  -1.3713
 -1.2607  -1.2120  -0.8730  -0.7787  -0.7216  -0.7203  -0.6880  -0.6559
 -0.6335  -0.6308  -0.5063  -0.4979  -0.4650  -0.4641  -0.4401  -0.3396
 -- Virtual --
 -0.0235   0.0103   0.0795   0.1182   0.1320   0.1354   0.1377   0.1711
  0.1790   0.1850   0.2260   0.2415   0.2479   0.2658   0.2764   0.2874
  0.3038   0.3260   0.3405   0.3456   0.3535   0.3606   0.3678   0.3866
  0.4009   0.4324   0.4462   0.4590   0.4966   0.5240   0.7406   0.7648
  0.8029   0.8252   0.8604   0.8745   0.9330   0.9508   0.9697   1.0151
  1.0275   1.0409   1.0549   1.0703   1.0760   1.0856   1.1215   1.1318
  1.1350   1.1629   1.1670   1.1695   1.2183   1.2449   1.2556   1.3134
  1.4380   1.4664   1.5138   1.5475   1.5681   1.5935   1.6040   1.6518
  1.6578   1.6919   1.7049   1.7894   1.8137   1.8833   1.9285   1.9422
  1.9867   2.1242   2.1954   2.2440   2.3393   2.3622   2.4200   2.4945
  2.5353   2.5692   2.6921   2.8089   3.5059   3.5461   3.5808   3.6276
  3.6360   3.6611   3.6928   3.7156   3.7209   3.7773   3.7939   3.9015
  3.9585   3.9944   4.0160   4.0796   4.0951   4.4166   4.4500   4.4862
  4.5013   4.5958   4.6419   4.6456   4.6781   4.7201   4.7350   4.7712
  4.8283   4.9284   4.9937   4.9975   5.0169   5.0284   5.0417   5.0468
  5.0700   5.0844   5.0953   5.1030   5.1216   5.1491   5.1636   5.1710
  5.2085   5.2646   5.3174   5.3881   5.4055   5.4110   5.4621   5.5120
  5.5510   5.5683   5.6327   5.6774   5.8354   5.9064   5.9893   6.0662
  6.3534   6.5338   6.6576   6.6728   6.7072   6.7305   6.7534   6.7670
  6.7907   6.8217   6.8697   6.9007   6.9402   7.0017   7.0967   7.1151
  7.1588   7.1731   7.2052   7.2736   7.3123   7.3561   7.4665   7.5646
  7.6683   7.6950   7.8295   7.8584   7.9145   8.2732  35.9263  36.1272
 49.9970  50.1641  50.2338  50.2625
 
 Beta MOs
 -- Occupied --
-19.4009 -19.3830 -19.3482 -19.3475 -14.7750 -14.5995  -1.4430  -1.3334
 -1.2576  -1.1792  -0.8298  -0.7455  -0.7189  -0.7054  -0.6741  -0.6032
 -0.5830  -0.5589  -0.4795  -0.4723  -0.4622  -0.4467
 -- Virtual --
 -0.1582  -0.0217  -0.0068   0.0619   0.0865   0.1227   0.1383   0.1416
  0.1470   0.1738   0.1827   0.1895   0.2271   0.2457   0.2509   0.2670
  0.2791   0.2900   0.3108   0.3278   0.3414   0.3476   0.3556   0.3622
  0.3702   0.3946   0.4088   0.4365   0.4490   0.4640   0.5146   0.5298
  0.7512   0.7723   0.8164   0.8444   0.8735   0.8796   0.9362   0.9574
  0.9806   1.0251   1.0327   1.0530   1.0669   1.0816   1.0884   1.1007
  1.1265   1.1431   1.1483   1.1672   1.1802   1.1892   1.2302   1.2582
  1.2661   1.3298   1.4534   1.4774   1.5180   1.5526   1.5727   1.6033
  1.6229   1.6717   1.6848   1.7095   1.7166   1.7929   1.8217   1.8979
  1.9338   1.9568   2.0005   2.1402   2.2062   2.2566   2.3540   2.3731
  2.4333   2.5076   2.5379   2.5763   2.7005   2.8130   3.5307   3.5777
  3.5956   3.6406   3.6541   3.6625   3.7053   3.7294   3.7377   3.8025
  3.8602   3.9202   3.9905   4.0097   4.0197   4.0932   4.1058   4.4195
  4.4533   4.4928   4.5033   4.6231   4.6452   4.6811   4.7110   4.7363
  4.7634   4.8059   4.8724   4.9777   5.0104   5.0157   5.0436   5.0467
  5.0585   5.0637   5.0848   5.0915   5.1132   5.1262   5.1382   5.1686
  5.1910   5.2044   5.2203   5.2915   5.3338   5.4036   5.4188   5.4202
  5.4768   5.5397   5.5729   5.5774   5.6612   5.6887   5.8397   5.9130
  6.0064   6.1049   6.3669   6.5360   6.6962   6.7064   6.7324   6.7702
  6.7938   6.7984   6.8121   6.8327   6.8725   6.9023   6.9756   7.0166
  7.1188   7.1307   7.1662   7.2043   7.2316   7.2828   7.3315   7.3720
  7.4905   7.5749   7.6994   7.7232   7.8401   7.8728   7.9228   8.2760
 35.9467  36.1275  50.0109  50.1812  50.2365  50.2624
 --------------------------------------------------------------
 
 -----------------------------------------------------------------
                    Cartesian Multipole Moments
 -----------------------------------------------------------------
    Charge (ESU x 10^10)
                -0.0000
    Dipole Moment (Debye)
         X      -0.2496      Y      -0.8259      Z       0.0976
       Tot       0.8683
    Quadrupole Moments (Debye-Ang)
        XX     -33.1303     XY      -0.9347     YY     -33.4073
        XZ      -1.8567     YZ      -1.1415     ZZ     -31.9095
    Octopole Moments (Debye-Ang^2)
       XXX     -34.0777    XXY     -12.8657    XYY     -11.4874
       YYY     -41.7410    XXZ     -96.1939    XYZ      -4.0394
       YYZ     -91.2773    XZZ     -17.7594    YZZ     -11.2875
       ZZZ    -274.9708
    Hexadecapole Moments (Debye-Ang^3)
      XXXX    -140.8939   XXXY     -60.8257   XXYY     -82.6076
      XYYY     -62.7478   YYYY    -355.9061   XXXZ     -91.9278
      XXYZ     -15.6656   XYYZ     -29.2895   YYYZ     -44.8144
      XXZZ    -322.0403   XYZZ     -34.9903   YYZZ    -330.5800
      XZZZ    -105.2800   YZZZ     -18.8006   ZZZZ   -1699.2480
 -----------------------------------------------------------------
Archival summary:
1\1\centos77-c5\SP\ProcedureUnspecified\BasisUnspecified\42(3)\shihchen\MonJul1315:28:282020MonJul1315:28:282020\0\\#,ProcedureUnspecified,BasisUnspecified,\\0,3\N\O,1,1.1843\O,1,1.19256,2,132.089\O,1,1.39884,2,119.979,3,-179.658,0\N,4,1.65582,1,111.752,2,2.54848,0\O,5,1.16777,4,114.9,1,95.6949,0\\\@

 Total job time:  15.87s(wall), 84.45s(cpu) 
 Mon Jul 13 15:28:28 2020

        *************************************************************
        *                                                           *
        *  Thank you very much for using Q-Chem.  Have a nice day.  *
        *                                                           *
        *************************************************************


