                  Welcome to Q-Chem
     A Quantum Leap Into The Future Of Chemistry


 Q-Chem 5.3 (devel), Q-Chem, Inc., Pleasanton, CA (2020)

 Yihan Shao,  Zhengting Gan,  E. Epifanovsky,  A. T. B. Gilbert,  M. Wormit,  
 J. Kussmann,  A. W. Lange,  A. Behn,  Jia Deng,  Xintian Feng,  D. Ghosh,  
 M. Goldey,  P. R. Horn,  L. D. Jacobson,  I. Kaliman,  T. Kus,  A. Landau,  
 Jie Liu,  E. I. Proynov,  R. M. Richard,  R. P. Steele,  E. J. Sundstrom,  
 H. L. Woodcock III,  P. M. Zimmerman,  D. Zuev,  B. Alam,  B. Albrecht,  
 E. Alguire,  S. A. Baeppler,  D. Barton,  Z. Benda,  Y. A. Bernard,  
 E. J. Berquist,  K. B. Bravaya,  H. Burton,  K. Carter-Fenk,  D. Casanova,  
 Chun-Min Chang,  Yunqing Chen,  A. Chien,  K. D. Closser,  M. P. Coons,  
 S. Coriani,  S. Dasgupta,  A. L. Dempwolff,  M. Diedenhofen,  Hainam Do,  
 R. G. Edgar,  Po-Tung Fang,  S. Faraji,  S. Fatehi,  Qingguo Feng,  
 J. Fosso-Tande,  J. Gayvert,  Qinghui Ge,  A. Ghysels,  G. Gidofalvi,  
 J. Gomes,  J. Gonthier,  A. Gunina,  D. Hait,  M. W. D. Hanson-Heine,  
 P. H. P. Harbach,  A. W. Hauser,  M. F. Herbst,  J. E. Herr,  
 E. G. Hohenstein,  Z. C. Holden,  Kerwin Hui,  B. C. Huynh,  T.-C. Jagau,  
 Hyunjun Ji,  B. Kaduk,  K. Khistyaev,  Jaehoon Kim,  P. Klunzinger,  K. Koh,  
 D. Kosenkov,  L. Koulias,  T. Kowalczyk,  C. M. Krauter,  A. Kunitsa,  
 Ka Un Lao,  A. Laurent,  K. V. Lawler,  Joonho Lee,  D. Lefrancois,  
 S. Lehtola,  D. S. Levine,  Yi-Pei Li,  You-Sheng Lin,  Fenglai Liu,  
 Kuan-Yu Liu,  E. Livshits,  M. Loipersberger,  A. Luenser,  P. Manohar,  
 E. Mansoor,  S. F. Manzer,  Shan-Ping Mao,  Yuezhi Mao,  N. Mardirossian,  
 A. V. Marenich,  T. Markovich,  L. A. Martinez-Martinez,  S. A. Maurer,  
 N. J. Mayhall,  S. C. McKenzie,  J.-M. Mewes,  P. Morgante,  A. F. Morrison,  
 J. W. Mullinax,  K. Nanda,  T. S. Nguyen-Beck,  R. Olivares-Amaya,  
 K. J. Oosterbaan,  J. A. Parkhill,  S. K. Paul,  F. Pavosevic,  Zheng Pei,  
 T. M. Perrine,  F. Plasser,  P. Pokhilko,  S. Prager,  A. Prociuk,  
 E. Ramos,  B. Rana,  D. R. Rehn,  F. Rob,  M. Scheurer,  M. Schneider,  
 N. Sergueev,  S. M. Sharada,  S. Sharma,  D. W. Small,  T. Stauch,  
 C. J. Stein,  T. Stein,  Yu-Chuan Su,  S. P. Veccham,  Zhen Tao,  
 A. J. W. Thom,  A. Tkatchenko,  T. Tsuchimochi,  N. M. Tubman,  L. Vogt,  
 M. L. Vidal,  O. Vydrov,  M. A. Watson,  J. Wenzel,  M. de Wergifosse,  
 T. A. Wesolowski,  A. White,  J. Witte,  A. Yamada,  Jun Yang,  K. Yao,  
 S. Yeganeh,  S. R. Yost,  Zhi-Qiang You,  A. Zech,  Igor Ying Zhang,  
 Xing Zhang,  Yan Zhao,  Ying Zhu,  B. R. Brooks,  G. K. L. Chan,  
 C. J. Cramer,  M. S. Gordon,  W. J. Hehre,  A. Klamt,  M. W. Schmidt,  
 C. D. Sherrill,  D. G. Truhlar,  A. Aspuru-Guzik,  R. Baer,  A. T. Bell,  
 N. A. Besley,  Jeng-Da Chai,  A. E. DePrince, III,  R. A. DiStasio Jr.,  
 A. Dreuw,  B. D. Dunietz,  T. R. Furlani,  Chao-Ping Hsu,  Yousung Jung,  
 Jing Kong,  D. S. Lambrecht,  WanZhen Liang,  C. Ochsenfeld,  
 V. A. Rassolov,  L. V. Slipchenko,  J. E. Subotnik,  T. Van Voorhis,  
 J. M. Herbert,  A. I. Krylov,  P. M. W. Gill,  M. Head-Gordon

 Contributors to earlier versions of Q-Chem not listed above: 
 R. D. Adamson,  B. Austin,  J. Baker,  G. J. O. Beran,  K. Brandhorst,  
 S. T. Brown,  E. F. C. Byrd,  A. K. Chakraborty,  C.-L. Cheng,  
 Siu Hung Chien,  D. M. Chipman,  D. L. Crittenden,  H. Dachsel,  
 R. J. Doerksen,  A. D. Dutoi,  L. Fusti-Molnar,  W. A. Goddard III,  
 A. Golubeva-Zadorozhnaya,  S. R. Gwaltney,  G. Hawkins,  A. Heyden,  
 S. Hirata,  G. Kedziora,  F. J. Keil,  C. Kelley,  Jihan Kim,  R. A. King,  
 R. Z. Khaliullin,  P. P. Korambath,  W. Kurlancheek,  A. M. Lee,  M. S. Lee,  
 S. V. Levchenko,  Ching Yeh Lin,  D. Liotard,  R. C. Lochan,  I. Lotan,  
 P. E. Maslen,  N. Nair,  D. P. O'Neill,  D. Neuhauser,  E. Neuscamman,  
 C. M. Oana,  R. Olson,  B. Peters,  R. Peverati,  P. A. Pieniazek,  
 Y. M. Rhee,  J. Ritchie,  M. A. Rohrdanz,  E. Rosta,  N. J. Russ,  
 H. F. Schaefer III,  N. E. Schultz,  N. Shenvi,  A. C. Simmonett,  A. Sodt,  
 D. Stuck,  K. S. Thanthiriwatte,  V. Vanovschi,  Tao Wang,  A. Warshel,  
 C. F. Williams,  Q. Wu,  X. Xu,  W. Zhang

 Please cite Q-Chem as follows:
 Y. Shao et al., Mol. Phys. 113, 184-215 (2015)
 DOI: 10.1080/00268976.2014.952696

 Q-Chem 5.3.0 for Intel X86 EM64T Linux

 Parts of Q-Chem use Armadillo 9.800.1 (Horizon Scraper).
 http://arma.sourceforge.net/

 Q-Chem begins on Mon Jul 13 15:22:27 2020  

Host: centos77-c5
0

     Scratch files written to /tmp/29025.centos77-h1/qchem78066//
Processing $rem in /opt/qchem-5.3.0-intel2020u1//config/preferences:
Processing $rem in /home/shihchengli/.qchemrc:

Checking the input file for inconsistencies... 	...done.

--------------------------------------------------------------
User input:
--------------------------------------------------------------
$rem
   JOBTYPE  sp
   EXCHANGE   omegaB97X-D
   BASIS   6-311+G(2df,2pd)
   UNRESTRICTED   True
   max_scf_cycles   250
   geom_opt_max_cycles   1500
   basis2 6-31G*
   scf_algorithm rca_diis
   SYM_IGNORE  TRUE
   print_input   true
   geom_opt_dmax   80
   pop_mulliken false
   XC_GRID 000075000302
$end

$molecule
0 3
N       0.6877539257     1.2105143434     2.4777162057
O       0.3799464281     2.1800146099     1.8595030004
O       1.6027221962     0.9832628380     3.1929848041
N       0.0353553176     -1.1510459660     3.1391660238
O       -0.4771174168     -1.3257843361     4.1745324610
O       -0.2836693207     0.1980276207     2.2563973950
$end
--------------------------------------------------------------
 ----------------------------------------------------------------
             Standard Nuclear Orientation (Angstroms)
    I     Atom           X                Y                Z
 ----------------------------------------------------------------
    1      N       0.6877539257     1.2105143434     2.4777162057
    2      O       0.3799464281     2.1800146099     1.8595030004
    3      O       1.6027221962     0.9832628380     3.1929848041
    4      N       0.0353553176    -1.1510459660     3.1391660238
    5      O      -0.4771174168    -1.3257843361     4.1745324610
    6      O      -0.2836693207     0.1980276207     2.2563973950
 ----------------------------------------------------------------
 Nuclear Repulsion Energy =         231.60891373 hartrees
 There are       24 alpha and       22 beta electrons
 Requested basis set is 6-311+G(2df,2pd)
 There are 48 shells and 204 basis functions

 Total QAlloc Memory Limit   2000 MB
 Mega-Array Size       188 MB
 MEM_STATIC part       192 MB

                       Distance Matrix (Angstroms)
             N (  1)   O (  2)   O (  3)   N (  4)   O (  5)
   O (  2)  1.190321
   O (  3)  1.183393  2.169232
   N (  4)  2.537737  3.585003  2.648549
   O (  5)  3.266332  4.287720  3.258967  1.168394
   O (  6)  1.420484  2.127483  2.247724  1.643489  2.457370
 
 A cutoff of  1.0D-09 yielded   1025 shell pairs
 There are     19149 function pairs (     25141 Cartesian)
 Smallest overlap matrix eigenvalue = 6.71E-04

 Scale SEOQF with 1.000000e-01/1.000000e-01/1.000000e-01

 Standard Electronic Orientation quadrupole field applied
 Nucleus-field energy     =    -0.0000000363 hartrees
 Requested basis set is 6-31G(d)
 There are 24 shells and 84 basis functions
 A cutoff of  1.0D-09 yielded    268 shell pairs
 There are      3534 function pairs (      4062 Cartesian)
 Smallest overlap matrix eigenvalue = 4.84E-03
 Guess from superposition of atomic densities
 Warning:  Energy on first SCF cycle will be non-variational
 SAD guess density has 46.000000 electrons
 Long-range K will be added via erf
 Coulomb attenuation parameter = 0.2 bohr**(-1)
 An unrestricted hybrid HF-DFT SCF calculation will be
 performed using Relaxed Constraint Minimization + Pulay DIIS
 Exchange:     0.2220 Hartree-Fock + 1.0000 wB97X-D + LR-HF
 Correlation:  1.0000 wB97X-D
 Using Euler-Maclaurin-Lebedev (75,302) quadrature formula
 Dispersion:   Grimme D
 SCF converges when DIIS error is below 1.0E-04
 using 6 threads for integral computing
 -------------------------------------------------------
 OpenMP Integral computing Module                
 Release: version 1.0, May 2013, Q-Chem Inc. Pittsburgh 
 -------------------------------------------------------
 using 6 threads for integral computing
 -------------------------------------------------------
 OpenMP Integral computing Module                
 Release: version 1.0, May 2013, Q-Chem Inc. Pittsburgh 
 -------------------------------------------------------
 ---------------------------------------
  Cycle       Energy         DIIS Error
 ---------------------------------------
    1    -411.0331867502      8.84E-02
    2    -409.6591508426      1.95E-02
    3    -409.7629740423      4.45E-03
    4    -409.9112804797      4.71E-03
    5    -409.9175338383      6.46E-04 Done RCA. Switching to DIIS
    6    -409.9258458468      5.57E-04
    7    -409.9262520368      9.37E-05 Convergence criterion met
 ---------------------------------------
 <S^2> = 2.0150
 SCF time:  CPU 13.20 s  wall 2.21 s
 SCF   energy in the small basis set = -409.92625204
 Total energy in the small basis set = -409.92625204
 ----------------------------------------------------
  Cycle       Energy    
 ----------------------------------------------------
    1     -41.7569425317     -4.18E+01
 Long-range K will be added via erf
 Coulomb attenuation parameter = 0.2 bohr**(-1)
 An unrestricted hybrid HF-DFT SCF calculation will be
 performed using Relaxed Constraint Minimization + Pulay DIIS
 Exchange:     0.2220 Hartree-Fock + 1.0000 wB97X-D + LR-HF
 Correlation:  1.0000 wB97X-D
 Using Euler-Maclaurin-Lebedev (75,302) quadrature formula
 Dispersion:   Grimme D
 SCF converges when DIIS error is below 1.0E-05
 Basis2 calculation detected. Using small basis as guess for larger.
 SCFMinFind is unable to tell whether the solution found is close.
 Resetting ReadMinima to 0 and attempting to follow guess.
 SCFMinFind following SCF Guess.
 using 6 threads for integral computing
 -------------------------------------------------------
 OpenMP Integral computing Module                
 Release: version 1.0, May 2013, Q-Chem Inc. Pittsburgh 
 -------------------------------------------------------
 using 6 threads for integral computing
 -------------------------------------------------------
 OpenMP Integral computing Module                
 Release: version 1.0, May 2013, Q-Chem Inc. Pittsburgh 
 -------------------------------------------------------
 ---------------------------------------
  Cycle       Energy         DIIS Error
 ---------------------------------------
    1    -410.0139656430      8.04E-03
    2    -410.0205027690      4.28E-03
    3    -410.0429846628      1.22E-03
    4    -410.0750362348      1.20E-03
    5    -410.0775379005      1.51E-04 Done RCA. Switching to DIIS
    6    -410.0812791062      1.52E-04
    7    -410.0814432760      5.40E-05
    8    -410.0815265985      2.20E-05
    9    -410.0815534553      1.14E-05
   10    -410.0815617537      5.54E-06 Convergence criterion met
 ---------------------------------------
 <S^2> = 2.0181
 SCF time:  CPU 65.04 s  wall 10.87 s
 SCF   energy in the final basis set = -410.08156175
 Total energy in the final basis set = -410.08156175
 
 --------------------------------------------------------------
 
                    Orbital Energies (a.u.)
 --------------------------------------------------------------
 
 Alpha MOs
 -- Occupied --
-19.4123 -19.4000 -19.3503 -19.3483 -14.7737 -14.6206  -1.4450  -1.3694
 -1.2600  -1.2082  -0.8744  -0.7772  -0.7202  -0.7186  -0.6862  -0.6561
 -0.6335  -0.6326  -0.5017  -0.4974  -0.4648  -0.4618  -0.4381  -0.3406
 -- Virtual --
 -0.0240   0.0099   0.0758   0.1154   0.1247   0.1353   0.1378   0.1706
  0.1787   0.1853   0.2269   0.2420   0.2493   0.2667   0.2724   0.2892
  0.3050   0.3267   0.3413   0.3444   0.3517   0.3606   0.3680   0.3895
  0.4000   0.4332   0.4439   0.4592   0.4930   0.5252   0.7407   0.7639
  0.8024   0.8286   0.8635   0.8770   0.9313   0.9504   0.9764   1.0134
  1.0247   1.0476   1.0586   1.0750   1.0764   1.0845   1.1221   1.1256
  1.1383   1.1589   1.1638   1.1694   1.2175   1.2454   1.2550   1.3188
  1.4483   1.4652   1.5131   1.5465   1.5679   1.5910   1.6004   1.6236
  1.6471   1.6788   1.7057   1.7880   1.8151   1.8916   1.9229   1.9460
  1.9873   2.1247   2.1961   2.2414   2.3354   2.3704   2.4398   2.4982
  2.5369   2.5681   2.6891   2.8081   3.5004   3.5378   3.5781   3.6209
  3.6305   3.6618   3.6892   3.7137   3.7223   3.7731   3.7945   3.8939
  3.9513   3.9985   4.0179   4.0766   4.0835   4.4203   4.4517   4.4835
  4.4973   4.5971   4.6461   4.6517   4.6856   4.7127   4.7404   4.7768
  4.8224   4.9078   4.9951   4.9984   5.0205   5.0258   5.0418   5.0467
  5.0619   5.0831   5.0903   5.1069   5.1223   5.1456   5.1677   5.1745
  5.2066   5.2673   5.3181   5.3791   5.4021   5.4219   5.4612   5.5065
  5.5323   5.5594   5.6295   5.6729   5.8230   5.8650   5.9887   6.1090
  6.3322   6.5332   6.6529   6.6606   6.6992   6.7276   6.7385   6.7666
  6.7917   6.8244   6.8741   6.9066   6.9501   6.9958   7.0927   7.1016
  7.1595   7.1719   7.1979   7.2706   7.3100   7.3511   7.4635   7.5641
  7.6664   7.6947   7.8166   7.8525   7.9062   8.2769  35.9144  36.1222
 49.9906  50.1657  50.2348  50.2619
 
 Beta MOs
 -- Occupied --
-19.3991 -19.3821 -19.3486 -19.3481 -14.7735 -14.6025  -1.4403  -1.3313
 -1.2575  -1.1747  -0.8306  -0.7446  -0.7164  -0.7046  -0.6735  -0.6044
 -0.5833  -0.5586  -0.4788  -0.4715  -0.4629  -0.4476
 -- Virtual --
 -0.1504  -0.0215  -0.0088   0.0609   0.0855   0.1212   0.1369   0.1403
  0.1419   0.1730   0.1822   0.1896   0.2280   0.2464   0.2522   0.2681
  0.2754   0.2915   0.3122   0.3284   0.3421   0.3463   0.3538   0.3625
  0.3699   0.3980   0.4083   0.4372   0.4470   0.4646   0.5115   0.5306
  0.7514   0.7728   0.8163   0.8472   0.8774   0.8821   0.9344   0.9579
  0.9874   1.0249   1.0293   1.0617   1.0705   1.0843   1.0900   1.1008
  1.1279   1.1395   1.1472   1.1653   1.1782   1.1827   1.2290   1.2544
  1.2706   1.3346   1.4622   1.4788   1.5178   1.5507   1.5724   1.6016
  1.6184   1.6454   1.6627   1.7050   1.7146   1.7916   1.8227   1.9034
  1.9288   1.9608   2.0035   2.1395   2.2079   2.2538   2.3489   2.3808
  2.4550   2.5118   2.5394   2.5753   2.6974   2.8120   3.5269   3.5736
  3.5932   3.6349   3.6507   3.6636   3.7025   3.7249   3.7368   3.8020
  3.8613   3.9136   3.9808   4.0141   4.0209   4.0903   4.0997   4.4229
  4.4558   4.4896   4.4995   4.6262   4.6517   4.6905   4.7169   4.7318
  4.7671   4.8139   4.8659   4.9583   5.0131   5.0153   5.0434   5.0469
  5.0551   5.0630   5.0770   5.0894   5.1102   5.1260   5.1369   5.1660
  5.1958   5.2070   5.2182   5.2946   5.3349   5.3981   5.4060   5.4361
  5.4735   5.5327   5.5509   5.5731   5.6535   5.6880   5.8282   5.8713
  6.0048   6.1469   6.3445   6.5354   6.6812   6.6986   6.7231   6.7697
  6.7913   6.7984   6.8034   6.8320   6.8765   6.9080   6.9810   7.0107
  7.1151   7.1170   7.1665   7.2036   7.2260   7.2785   7.3282   7.3653
  7.4899   7.5723   7.6945   7.7232   7.8263   7.8712   7.9129   8.2792
 35.9362  36.1226  50.0045  50.1825  50.2369  50.2619
 --------------------------------------------------------------
 
 -----------------------------------------------------------------
                    Cartesian Multipole Moments
 -----------------------------------------------------------------
    Charge (ESU x 10^10)
                -0.0000
    Dipole Moment (Debye)
         X      -0.2390      Y      -0.7941      Z       0.0891
       Tot       0.8341
    Quadrupole Moments (Debye-Ang)
        XX     -33.0509     XY      -0.9872     YY     -33.4249
        XZ      -1.8552     YZ      -0.9140     ZZ     -32.0822
    Octopole Moments (Debye-Ang^2)
       XXX     -33.8771    XXY     -12.9138    XYY     -11.4823
       YYY     -41.5205    XXZ     -95.9281    XYZ      -4.1574
       YYZ     -91.5370    XZZ     -17.8693    YZZ     -10.1872
       ZZZ    -276.1836
    Hexadecapole Moments (Debye-Ang^3)
      XXXX    -139.6780   XXXY     -62.6412   XXYY     -83.6000
      XYYY     -65.0545   YYYY    -363.0598   XXXZ     -91.0465
      XXYZ     -14.8426   XYYZ     -28.9982   YYYZ     -40.2996
      XXZZ    -321.7030   XYZZ     -35.9055   YYZZ    -334.3236
      XZZZ    -105.7092   YZZZ     -10.9187   ZZZZ   -1709.7933
 -----------------------------------------------------------------
Archival summary:
1\1\centos77-c5\SP\ProcedureUnspecified\BasisUnspecified\42(3)\shihchen\MonJul1315:22:422020MonJul1315:22:422020\0\\#,ProcedureUnspecified,BasisUnspecified,\\0,3\N\O,1,1.18339\O,1,1.19032,2,132.087\O,1,1.42048,2,119.081,3,-179.712,0\N,4,1.64349,1,111.633,2,2.58945,0\O,5,1.16839,4,120.904,1,95.6949,0\\\@

 Total job time:  15.49s(wall), 82.70s(cpu) 
 Mon Jul 13 15:22:42 2020

        *************************************************************
        *                                                           *
        *  Thank you very much for using Q-Chem.  Have a nice day.  *
        *                                                           *
        *************************************************************


