                  Welcome to Q-Chem
     A Quantum Leap Into The Future Of Chemistry


 Q-Chem 5.3 (devel), Q-Chem, Inc., Pleasanton, CA (2020)

 Yihan Shao,  Zhengting Gan,  E. Epifanovsky,  A. T. B. Gilbert,  M. Wormit,  
 J. Kussmann,  A. W. Lange,  A. Behn,  Jia Deng,  Xintian Feng,  D. Ghosh,  
 M. Goldey,  P. R. Horn,  L. D. Jacobson,  I. Kaliman,  T. Kus,  A. Landau,  
 Jie Liu,  E. I. Proynov,  R. M. Richard,  R. P. Steele,  E. J. Sundstrom,  
 H. L. Woodcock III,  P. M. Zimmerman,  D. Zuev,  B. Alam,  B. Albrecht,  
 E. Alguire,  S. A. Baeppler,  D. Barton,  Z. Benda,  Y. A. Bernard,  
 E. J. Berquist,  K. B. Bravaya,  H. Burton,  K. Carter-Fenk,  D. Casanova,  
 Chun-Min Chang,  Yunqing Chen,  A. Chien,  K. D. Closser,  M. P. Coons,  
 S. Coriani,  S. Dasgupta,  A. L. Dempwolff,  M. Diedenhofen,  Hainam Do,  
 R. G. Edgar,  Po-Tung Fang,  S. Faraji,  S. Fatehi,  Qingguo Feng,  
 J. Fosso-Tande,  J. Gayvert,  Qinghui Ge,  A. Ghysels,  G. Gidofalvi,  
 J. Gomes,  J. Gonthier,  A. Gunina,  D. Hait,  M. W. D. Hanson-Heine,  
 P. H. P. Harbach,  A. W. Hauser,  M. F. Herbst,  J. E. Herr,  
 E. G. Hohenstein,  Z. C. Holden,  Kerwin Hui,  B. C. Huynh,  T.-C. Jagau,  
 Hyunjun Ji,  B. Kaduk,  K. Khistyaev,  Jaehoon Kim,  P. Klunzinger,  K. Koh,  
 D. Kosenkov,  L. Koulias,  T. Kowalczyk,  C. M. Krauter,  A. Kunitsa,  
 Ka Un Lao,  A. Laurent,  K. V. Lawler,  Joonho Lee,  D. Lefrancois,  
 S. Lehtola,  D. S. Levine,  Yi-Pei Li,  You-Sheng Lin,  Fenglai Liu,  
 Kuan-Yu Liu,  E. Livshits,  M. Loipersberger,  A. Luenser,  P. Manohar,  
 E. Mansoor,  S. F. Manzer,  Shan-Ping Mao,  Yuezhi Mao,  N. Mardirossian,  
 A. V. Marenich,  T. Markovich,  L. A. Martinez-Martinez,  S. A. Maurer,  
 N. J. Mayhall,  S. C. McKenzie,  J.-M. Mewes,  P. Morgante,  A. F. Morrison,  
 J. W. Mullinax,  K. Nanda,  T. S. Nguyen-Beck,  R. Olivares-Amaya,  
 K. J. Oosterbaan,  J. A. Parkhill,  S. K. Paul,  F. Pavosevic,  Zheng Pei,  
 T. M. Perrine,  F. Plasser,  P. Pokhilko,  S. Prager,  A. Prociuk,  
 E. Ramos,  B. Rana,  D. R. Rehn,  F. Rob,  M. Scheurer,  M. Schneider,  
 N. Sergueev,  S. M. Sharada,  S. Sharma,  D. W. Small,  T. Stauch,  
 C. J. Stein,  T. Stein,  Yu-Chuan Su,  S. P. Veccham,  Zhen Tao,  
 A. J. W. Thom,  A. Tkatchenko,  T. Tsuchimochi,  N. M. Tubman,  L. Vogt,  
 M. L. Vidal,  O. Vydrov,  M. A. Watson,  J. Wenzel,  M. de Wergifosse,  
 T. A. Wesolowski,  A. White,  J. Witte,  A. Yamada,  Jun Yang,  K. Yao,  
 S. Yeganeh,  S. R. Yost,  Zhi-Qiang You,  A. Zech,  Igor Ying Zhang,  
 Xing Zhang,  Yan Zhao,  Ying Zhu,  B. R. Brooks,  G. K. L. Chan,  
 C. J. Cramer,  M. S. Gordon,  W. J. Hehre,  A. Klamt,  M. W. Schmidt,  
 C. D. Sherrill,  D. G. Truhlar,  A. Aspuru-Guzik,  R. Baer,  A. T. Bell,  
 N. A. Besley,  Jeng-Da Chai,  A. E. DePrince, III,  R. A. DiStasio Jr.,  
 A. Dreuw,  B. D. Dunietz,  T. R. Furlani,  Chao-Ping Hsu,  Yousung Jung,  
 Jing Kong,  D. S. Lambrecht,  WanZhen Liang,  C. Ochsenfeld,  
 V. A. Rassolov,  L. V. Slipchenko,  J. E. Subotnik,  T. Van Voorhis,  
 J. M. Herbert,  A. I. Krylov,  P. M. W. Gill,  M. Head-Gordon

 Contributors to earlier versions of Q-Chem not listed above: 
 R. D. Adamson,  B. Austin,  J. Baker,  G. J. O. Beran,  K. Brandhorst,  
 S. T. Brown,  E. F. C. Byrd,  A. K. Chakraborty,  C.-L. Cheng,  
 Siu Hung Chien,  D. M. Chipman,  D. L. Crittenden,  H. Dachsel,  
 R. J. Doerksen,  A. D. Dutoi,  L. Fusti-Molnar,  W. A. Goddard III,  
 A. Golubeva-Zadorozhnaya,  S. R. Gwaltney,  G. Hawkins,  A. Heyden,  
 S. Hirata,  G. Kedziora,  F. J. Keil,  C. Kelley,  Jihan Kim,  R. A. King,  
 R. Z. Khaliullin,  P. P. Korambath,  W. Kurlancheek,  A. M. Lee,  M. S. Lee,  
 S. V. Levchenko,  Ching Yeh Lin,  D. Liotard,  R. C. Lochan,  I. Lotan,  
 P. E. Maslen,  N. Nair,  D. P. O'Neill,  D. Neuhauser,  E. Neuscamman,  
 C. M. Oana,  R. Olson,  B. Peters,  R. Peverati,  P. A. Pieniazek,  
 Y. M. Rhee,  J. Ritchie,  M. A. Rohrdanz,  E. Rosta,  N. J. Russ,  
 H. F. Schaefer III,  N. E. Schultz,  N. Shenvi,  A. C. Simmonett,  A. Sodt,  
 D. Stuck,  K. S. Thanthiriwatte,  V. Vanovschi,  Tao Wang,  A. Warshel,  
 C. F. Williams,  Q. Wu,  X. Xu,  W. Zhang

 Please cite Q-Chem as follows:
 Y. Shao et al., Mol. Phys. 113, 184-215 (2015)
 DOI: 10.1080/00268976.2014.952696

 Q-Chem 5.3.0 for Intel X86 EM64T Linux

 Parts of Q-Chem use Armadillo 9.800.1 (Horizon Scraper).
 http://arma.sourceforge.net/

 Q-Chem begins on Mon Jul 13 15:28:45 2020  

Host: centos77-c5
0

     Scratch files written to /tmp/29025.centos77-h1/qchem60898//
Processing $rem in /opt/qchem-5.3.0-intel2020u1//config/preferences:
Processing $rem in /home/shihchengli/.qchemrc:

Checking the input file for inconsistencies... 	...done.

--------------------------------------------------------------
User input:
--------------------------------------------------------------
$rem
   JOBTYPE  sp
   EXCHANGE   omegaB97X-D
   BASIS   6-311+G(2df,2pd)
   UNRESTRICTED   True
   max_scf_cycles   250
   geom_opt_max_cycles   1500
   basis2 6-31G*
   scf_algorithm rca_diis
   SYM_IGNORE  TRUE
   print_input   true
   geom_opt_dmax   80
   pop_mulliken false
   XC_GRID 000075000302
$end

$molecule
0 3
N       0.6768757270     1.1588228620     2.5087319772
O       0.2922075307     2.1301105657     1.9243249495
O       1.6382400751     0.9602275328     3.1744604231
N       0.1091636592     -1.2243412165     3.1134577336
O       -0.5207229242     -1.1249300419     4.0902485165
O       -0.2507729377     0.1950994077     2.2890762901
$end
--------------------------------------------------------------
 ----------------------------------------------------------------
             Standard Nuclear Orientation (Angstroms)
    I     Atom           X                Y                Z
 ----------------------------------------------------------------
    1      N       0.6768757270     1.1588228620     2.5087319772
    2      O       0.2922075307     2.1301105657     1.9243249495
    3      O       1.6382400751     0.9602275328     3.1744604231
    4      N       0.1091636592    -1.2243412165     3.1134577336
    5      O      -0.5207229242    -1.1249300419     4.0902485165
    6      O      -0.2507729377     0.1950994077     2.2890762901
 ----------------------------------------------------------------
 Nuclear Repulsion Energy =         235.83813206 hartrees
 There are       24 alpha and       22 beta electrons
 Requested basis set is 6-311+G(2df,2pd)
 There are 48 shells and 204 basis functions

 Total QAlloc Memory Limit   2000 MB
 Mega-Array Size       188 MB
 MEM_STATIC part       192 MB

                       Distance Matrix (Angstroms)
             N (  1)   O (  2)   O (  3)   N (  4)   O (  5)
   O (  2)  1.197038
   O (  3)  1.186110  2.177905
   N (  4)  2.523383  3.563690  2.667234
   O (  5)  3.025056  3.993416  3.138100  1.166516
   O (  6)  1.355560  2.042582  2.222093  1.680467  2.249349
 
 A cutoff of  1.0D-09 yielded   1037 shell pairs
 There are     19308 function pairs (     25343 Cartesian)
 Smallest overlap matrix eigenvalue = 7.19E-04

 Scale SEOQF with 1.000000e-01/1.000000e-01/1.000000e-01

 Standard Electronic Orientation quadrupole field applied
 Nucleus-field energy     =    -0.0000000363 hartrees
 Requested basis set is 6-31G(d)
 There are 24 shells and 84 basis functions
 A cutoff of  1.0D-09 yielded    268 shell pairs
 There are      3534 function pairs (      4062 Cartesian)
 Smallest overlap matrix eigenvalue = 4.70E-03
 Guess from superposition of atomic densities
 Warning:  Energy on first SCF cycle will be non-variational
 SAD guess density has 46.000000 electrons
 Long-range K will be added via erf
 Coulomb attenuation parameter = 0.2 bohr**(-1)
 An unrestricted hybrid HF-DFT SCF calculation will be
 performed using Relaxed Constraint Minimization + Pulay DIIS
 Exchange:     0.2220 Hartree-Fock + 1.0000 wB97X-D + LR-HF
 Correlation:  1.0000 wB97X-D
 Using Euler-Maclaurin-Lebedev (75,302) quadrature formula
 Dispersion:   Grimme D
 SCF converges when DIIS error is below 1.0E-04
 using 6 threads for integral computing
 -------------------------------------------------------
 OpenMP Integral computing Module                
 Release: version 1.0, May 2013, Q-Chem Inc. Pittsburgh 
 -------------------------------------------------------
 using 6 threads for integral computing
 -------------------------------------------------------
 OpenMP Integral computing Module                
 Release: version 1.0, May 2013, Q-Chem Inc. Pittsburgh 
 -------------------------------------------------------
 ---------------------------------------
  Cycle       Energy         DIIS Error
 ---------------------------------------
    1    -411.1116020890      9.00E-02
    2    -409.6607032215      1.93E-02
    3    -409.7621281786      4.33E-03
    4    -409.9066593655      4.32E-03
    5    -409.9120401477      5.69E-04 Done RCA. Switching to DIIS
    6    -409.9191819774      4.04E-04
    7    -409.9195297281      1.12E-04
    8    -409.9196475963      6.33E-05 Convergence criterion met
 ---------------------------------------
 <S^2> = 2.0184
 SCF time:  CPU 14.43 s  wall 2.42 s
 SCF   energy in the small basis set = -409.91964760
 Total energy in the small basis set = -409.91964760
 ----------------------------------------------------
  Cycle       Energy    
 ----------------------------------------------------
    1     -41.7839021951     -4.18E+01
 Long-range K will be added via erf
 Coulomb attenuation parameter = 0.2 bohr**(-1)
 An unrestricted hybrid HF-DFT SCF calculation will be
 performed using Relaxed Constraint Minimization + Pulay DIIS
 Exchange:     0.2220 Hartree-Fock + 1.0000 wB97X-D + LR-HF
 Correlation:  1.0000 wB97X-D
 Using Euler-Maclaurin-Lebedev (75,302) quadrature formula
 Dispersion:   Grimme D
 SCF converges when DIIS error is below 1.0E-05
 Basis2 calculation detected. Using small basis as guess for larger.
 SCFMinFind is unable to tell whether the solution found is close.
 Resetting ReadMinima to 0 and attempting to follow guess.
 SCFMinFind following SCF Guess.
 using 6 threads for integral computing
 -------------------------------------------------------
 OpenMP Integral computing Module                
 Release: version 1.0, May 2013, Q-Chem Inc. Pittsburgh 
 -------------------------------------------------------
 using 6 threads for integral computing
 -------------------------------------------------------
 OpenMP Integral computing Module                
 Release: version 1.0, May 2013, Q-Chem Inc. Pittsburgh 
 -------------------------------------------------------
 ---------------------------------------
  Cycle       Energy         DIIS Error
 ---------------------------------------
    1    -410.0013668624      8.09E-03
    2    -409.9995781190      4.69E-03
    3    -410.0255986121      1.51E-03
    4    -410.0640143219      1.15E-03
    5    -410.0681211352      3.65E-04 Done RCA. Switching to DIIS
    6    -410.0731641900      5.41E-04
    7    -410.0744480626      8.41E-05
    8    -410.0746929960      3.87E-05
    9    -410.0747951324      2.91E-05
   10    -410.0748296597      1.96E-05
   11    -410.0748370075      1.02E-05
   12    -410.0748391542      3.32E-06 Convergence criterion met
 ---------------------------------------
 <S^2> = 2.0213
 SCF time:  CPU 78.24 s  wall 13.07 s
 SCF   energy in the final basis set = -410.07483915
 Total energy in the final basis set = -410.07483915
 
 --------------------------------------------------------------
 
                    Orbital Energies (a.u.)
 --------------------------------------------------------------
 
 Alpha MOs
 -- Occupied --
-19.4165 -19.4024 -19.3529 -19.3487 -14.7788 -14.6071  -1.4583  -1.3752
 -1.2648  -1.2193  -0.8685  -0.7825  -0.7289  -0.7229  -0.6930  -0.6557
 -0.6327  -0.6240  -0.5163  -0.4986  -0.4690  -0.4663  -0.4429  -0.3358
 -- Virtual --
 -0.0243   0.0068   0.0847   0.1211   0.1344   0.1367   0.1532   0.1732
  0.1817   0.1849   0.2254   0.2397   0.2480   0.2634   0.2813   0.2873
  0.3029   0.3244   0.3383   0.3483   0.3556   0.3595   0.3701   0.3827
  0.4050   0.4320   0.4516   0.4592   0.5029   0.5212   0.7396   0.7670
  0.8028   0.8158   0.8505   0.8716   0.9372   0.9532   0.9587   1.0146
  1.0272   1.0363   1.0452   1.0642   1.0760   1.0873   1.1187   1.1246
  1.1434   1.1673   1.1710   1.1769   1.2213   1.2378   1.2647   1.3032
  1.4197   1.4775   1.5174   1.5473   1.5689   1.5909   1.6120   1.6349
  1.6687   1.6964   1.7778   1.7922   1.8148   1.8832   1.9311   1.9450
  2.0054   2.1307   2.1899   2.2286   2.3304   2.3671   2.3826   2.4983
  2.5350   2.5668   2.6992   2.8097   3.5209   3.5562   3.5844   3.6319
  3.6445   3.6564   3.6922   3.7179   3.7349   3.7849   3.7923   3.9207
  3.9676   3.9906   4.0100   4.0860   4.1431   4.4049   4.4399   4.4953
  4.5118   4.5900   4.6275   4.6413   4.6675   4.7188   4.7230   4.7612
  4.8432   4.9358   4.9834   5.0103   5.0126   5.0351   5.0410   5.0458
  5.0575   5.0870   5.0992   5.1165   5.1246   5.1320   5.1614   5.1737
  5.2078   5.2913   5.3154   5.3711   5.4119   5.4187   5.4553   5.5171
  5.5776   5.6096   5.6590   5.7092   5.8356   5.9685   5.9984   6.0078
  6.4029   6.5379   6.6655   6.6952   6.7154   6.7346   6.7618   6.7704
  6.7884   6.8176   6.8643   6.8884   6.9537   7.0127   7.1234   7.1499
  7.1582   7.1719   7.2046   7.2704   7.3086   7.3720   7.4708   7.5724
  7.6802   7.6904   7.8498   7.8749   7.9434   8.2663  35.9599  36.1460
 50.0134  50.1631  50.2314  50.2621
 
 Beta MOs
 -- Occupied --
-19.4029 -19.3834 -19.3490 -19.3488 -14.7789 -14.5921  -1.4511  -1.3376
 -1.2599  -1.1880  -0.8266  -0.7486  -0.7254  -0.7081  -0.6769  -0.6011
 -0.5816  -0.5587  -0.4810  -0.4742  -0.4624  -0.4459
 -- Virtual --
 -0.1661  -0.0227  -0.0027   0.0552   0.0889   0.1252   0.1374   0.1411
  0.1620   0.1779   0.1873   0.1899   0.2266   0.2432   0.2515   0.2646
  0.2822   0.2917   0.3097   0.3263   0.3396   0.3504   0.3576   0.3616
  0.3727   0.3891   0.4128   0.4358   0.4546   0.4637   0.5213   0.5281
  0.7493   0.7716   0.8157   0.8342   0.8650   0.8756   0.9426   0.9600
  0.9673   1.0245   1.0328   1.0438   1.0568   1.0772   1.0881   1.1005
  1.1222   1.1354   1.1557   1.1736   1.1826   1.2044   1.2344   1.2492
  1.2753   1.3188   1.4337   1.4899   1.5212   1.5547   1.5729   1.6029
  1.6319   1.6638   1.6897   1.7023   1.7903   1.8052   1.8261   1.8972
  1.9454   1.9482   2.0197   2.1492   2.2001   2.2425   2.3485   2.3766
  2.3906   2.5100   2.5400   2.5733   2.7081   2.8144   3.5413   3.5790
  3.6002   3.6471   3.6546   3.6609   3.7039   3.7333   3.7517   3.8060
  3.8576   3.9369   4.0007   4.0045   4.0146   4.0966   4.1508   4.4088
  4.4427   4.5011   4.5131   4.6114   4.6354   4.6667   4.7008   4.7311
  4.7570   4.7893   4.8844   4.9833   5.0008   5.0232   5.0427   5.0452
  5.0629   5.0727   5.0837   5.1007   5.1153   5.1317   5.1404   5.1685
  5.1737   5.2052   5.2166   5.3190   5.3354   5.3922   5.4144   5.4394
  5.4750   5.5414   5.5866   5.6314   5.6787   5.7315   5.8435   6.0006
  6.0080   6.0246   6.4197   6.5406   6.7065   6.7380   6.7469   6.7696
  6.7904   6.7960   6.8226   6.8341   6.8677   6.8903   6.9936   7.0297
  7.1448   7.1621   7.1709   7.2011   7.2339   7.2770   7.3299   7.3905
  7.4920   7.5875   7.7138   7.7192   7.8615   7.8832   7.9539   8.2703
 35.9777  36.1460  50.0270  50.1809  50.2356  50.2621
 --------------------------------------------------------------
 
 -----------------------------------------------------------------
                    Cartesian Multipole Moments
 -----------------------------------------------------------------
    Charge (ESU x 10^10)
                -0.0000
    Dipole Moment (Debye)
         X      -0.2674      Y      -0.7671      Z       0.0990
       Tot       0.8184
    Quadrupole Moments (Debye-Ang)
        XX     -33.3021     XY      -0.7169     YY     -33.3471
        XZ      -1.8542     YZ      -1.3304     ZZ     -31.5729
    Octopole Moments (Debye-Ang^2)
       XXX     -34.3767    XXY     -12.7039    XYY     -11.5587
       YYY     -41.3381    XXZ     -96.7563    XYZ      -3.4116
       YYZ     -90.7472    XZZ     -17.5626    YZZ     -12.9871
       ZZZ    -272.2551
    Hexadecapole Moments (Debye-Ang^3)
      XXXX    -143.0088   XXXY     -56.6797   XXYY     -80.4594
      XYYY     -57.3430   YYYY    -340.5005   XXXZ     -93.6727
      XXYZ     -17.2356   XYYZ     -30.2289   YYYZ     -52.0315
      XXZZ    -322.6268   XYZZ     -31.6521   YYZZ    -322.8168
      XZZZ    -104.9672   YZZZ     -34.5099   ZZZZ   -1674.6328
 -----------------------------------------------------------------
Archival summary:
1\1\centos77-c5\SP\ProcedureUnspecified\BasisUnspecified\42(3)\shihchen\MonJul1315:29:032020MonJul1315:29:032020\0\\#,ProcedureUnspecified,BasisUnspecified,\\0,3\N\O,1,1.18611\O,1,1.19704,2,132.093\O,1,1.35556,2,121.774,3,-179.566,0\N,4,1.68047,1,111.99,2,2.48035,0\O,5,1.16652,4,102.894,1,95.6949,0\\\@

 Total job time:  17.95s(wall), 97.06s(cpu) 
 Mon Jul 13 15:29:03 2020

        *************************************************************
        *                                                           *
        *  Thank you very much for using Q-Chem.  Have a nice day.  *
        *                                                           *
        *************************************************************


