                  Welcome to Q-Chem
     A Quantum Leap Into The Future Of Chemistry


 Q-Chem 5.3 (devel), Q-Chem, Inc., Pleasanton, CA (2020)

 Yihan Shao,  Zhengting Gan,  E. Epifanovsky,  A. T. B. Gilbert,  M. Wormit,  
 J. Kussmann,  A. W. Lange,  A. Behn,  Jia Deng,  Xintian Feng,  D. Ghosh,  
 M. Goldey,  P. R. Horn,  L. D. Jacobson,  I. Kaliman,  T. Kus,  A. Landau,  
 Jie Liu,  E. I. Proynov,  R. M. Richard,  R. P. Steele,  E. J. Sundstrom,  
 H. L. Woodcock III,  P. M. Zimmerman,  D. Zuev,  B. Alam,  B. Albrecht,  
 E. Alguire,  S. A. Baeppler,  D. Barton,  Z. Benda,  Y. A. Bernard,  
 E. J. Berquist,  K. B. Bravaya,  H. Burton,  K. Carter-Fenk,  D. Casanova,  
 Chun-Min Chang,  Yunqing Chen,  A. Chien,  K. D. Closser,  M. P. Coons,  
 S. Coriani,  S. Dasgupta,  A. L. Dempwolff,  M. Diedenhofen,  Hainam Do,  
 R. G. Edgar,  Po-Tung Fang,  S. Faraji,  S. Fatehi,  Qingguo Feng,  
 J. Fosso-Tande,  J. Gayvert,  Qinghui Ge,  A. Ghysels,  G. Gidofalvi,  
 J. Gomes,  J. Gonthier,  A. Gunina,  D. Hait,  M. W. D. Hanson-Heine,  
 P. H. P. Harbach,  A. W. Hauser,  M. F. Herbst,  J. E. Herr,  
 E. G. Hohenstein,  Z. C. Holden,  Kerwin Hui,  B. C. Huynh,  T.-C. Jagau,  
 Hyunjun Ji,  B. Kaduk,  K. Khistyaev,  Jaehoon Kim,  P. Klunzinger,  K. Koh,  
 D. Kosenkov,  L. Koulias,  T. Kowalczyk,  C. M. Krauter,  A. Kunitsa,  
 Ka Un Lao,  A. Laurent,  K. V. Lawler,  Joonho Lee,  D. Lefrancois,  
 S. Lehtola,  D. S. Levine,  Yi-Pei Li,  You-Sheng Lin,  Fenglai Liu,  
 Kuan-Yu Liu,  E. Livshits,  M. Loipersberger,  A. Luenser,  P. Manohar,  
 E. Mansoor,  S. F. Manzer,  Shan-Ping Mao,  Yuezhi Mao,  N. Mardirossian,  
 A. V. Marenich,  T. Markovich,  L. A. Martinez-Martinez,  S. A. Maurer,  
 N. J. Mayhall,  S. C. McKenzie,  J.-M. Mewes,  P. Morgante,  A. F. Morrison,  
 J. W. Mullinax,  K. Nanda,  T. S. Nguyen-Beck,  R. Olivares-Amaya,  
 K. J. Oosterbaan,  J. A. Parkhill,  S. K. Paul,  F. Pavosevic,  Zheng Pei,  
 T. M. Perrine,  F. Plasser,  P. Pokhilko,  S. Prager,  A. Prociuk,  
 E. Ramos,  B. Rana,  D. R. Rehn,  F. Rob,  M. Scheurer,  M. Schneider,  
 N. Sergueev,  S. M. Sharada,  S. Sharma,  D. W. Small,  T. Stauch,  
 C. J. Stein,  T. Stein,  Yu-Chuan Su,  S. P. Veccham,  Zhen Tao,  
 A. J. W. Thom,  A. Tkatchenko,  T. Tsuchimochi,  N. M. Tubman,  L. Vogt,  
 M. L. Vidal,  O. Vydrov,  M. A. Watson,  J. Wenzel,  M. de Wergifosse,  
 T. A. Wesolowski,  A. White,  J. Witte,  A. Yamada,  Jun Yang,  K. Yao,  
 S. Yeganeh,  S. R. Yost,  Zhi-Qiang You,  A. Zech,  Igor Ying Zhang,  
 Xing Zhang,  Yan Zhao,  Ying Zhu,  B. R. Brooks,  G. K. L. Chan,  
 C. J. Cramer,  M. S. Gordon,  W. J. Hehre,  A. Klamt,  M. W. Schmidt,  
 C. D. Sherrill,  D. G. Truhlar,  A. Aspuru-Guzik,  R. Baer,  A. T. Bell,  
 N. A. Besley,  Jeng-Da Chai,  A. E. DePrince, III,  R. A. DiStasio Jr.,  
 A. Dreuw,  B. D. Dunietz,  T. R. Furlani,  Chao-Ping Hsu,  Yousung Jung,  
 Jing Kong,  D. S. Lambrecht,  WanZhen Liang,  C. Ochsenfeld,  
 V. A. Rassolov,  L. V. Slipchenko,  J. E. Subotnik,  T. Van Voorhis,  
 J. M. Herbert,  A. I. Krylov,  P. M. W. Gill,  M. Head-Gordon

 Contributors to earlier versions of Q-Chem not listed above: 
 R. D. Adamson,  B. Austin,  J. Baker,  G. J. O. Beran,  K. Brandhorst,  
 S. T. Brown,  E. F. C. Byrd,  A. K. Chakraborty,  C.-L. Cheng,  
 Siu Hung Chien,  D. M. Chipman,  D. L. Crittenden,  H. Dachsel,  
 R. J. Doerksen,  A. D. Dutoi,  L. Fusti-Molnar,  W. A. Goddard III,  
 A. Golubeva-Zadorozhnaya,  S. R. Gwaltney,  G. Hawkins,  A. Heyden,  
 S. Hirata,  G. Kedziora,  F. J. Keil,  C. Kelley,  Jihan Kim,  R. A. King,  
 R. Z. Khaliullin,  P. P. Korambath,  W. Kurlancheek,  A. M. Lee,  M. S. Lee,  
 S. V. Levchenko,  Ching Yeh Lin,  D. Liotard,  R. C. Lochan,  I. Lotan,  
 P. E. Maslen,  N. Nair,  D. P. O'Neill,  D. Neuhauser,  E. Neuscamman,  
 C. M. Oana,  R. Olson,  B. Peters,  R. Peverati,  P. A. Pieniazek,  
 Y. M. Rhee,  J. Ritchie,  M. A. Rohrdanz,  E. Rosta,  N. J. Russ,  
 H. F. Schaefer III,  N. E. Schultz,  N. Shenvi,  A. C. Simmonett,  A. Sodt,  
 D. Stuck,  K. S. Thanthiriwatte,  V. Vanovschi,  Tao Wang,  A. Warshel,  
 C. F. Williams,  Q. Wu,  X. Xu,  W. Zhang

 Please cite Q-Chem as follows:
 Y. Shao et al., Mol. Phys. 113, 184-215 (2015)
 DOI: 10.1080/00268976.2014.952696

 Q-Chem 5.3.0 for Intel X86 EM64T Linux

 Parts of Q-Chem use Armadillo 9.800.1 (Horizon Scraper).
 http://arma.sourceforge.net/

 Q-Chem begins on Mon Jul 13 15:34:51 2020  

Host: centos77-c5
0

     Scratch files written to /tmp/29025.centos77-h1/qchem39297//
Processing $rem in /opt/qchem-5.3.0-intel2020u1//config/preferences:
Processing $rem in /home/shihchengli/.qchemrc:

Checking the input file for inconsistencies... 	...done.

--------------------------------------------------------------
User input:
--------------------------------------------------------------
$rem
   JOBTYPE  sp
   EXCHANGE   omegaB97X-D
   BASIS   6-311+G(2df,2pd)
   UNRESTRICTED   True
   max_scf_cycles   250
   geom_opt_max_cycles   1500
   basis2 6-31G*
   scf_algorithm rca_diis
   SYM_IGNORE  TRUE
   print_input   true
   geom_opt_dmax   80
   pop_mulliken false
   XC_GRID 000075000302
$end

$molecule
0 3
N       0.6735507868     1.2612307301     2.4612294472
O       0.4282022251     2.2675981314     1.8884101803
O       1.5883769234     0.9913356790     3.1471901589
N       0.0673626663     -1.2326769354     3.1530922848
O       -0.5148506472     -1.2865654137     4.1728221256
O       -0.2976508242     0.0940669185     2.2775556931
$end
--------------------------------------------------------------
 ----------------------------------------------------------------
             Standard Nuclear Orientation (Angstroms)
    I     Atom           X                Y                Z
 ----------------------------------------------------------------
    1      N       0.6735507868     1.2612307301     2.4612294472
    2      O       0.4282022251     2.2675981314     1.8884101803
    3      O       1.5883769234     0.9913356790     3.1471901589
    4      N       0.0673626663    -1.2326769354     3.1530922848
    5      O      -0.5148506472    -1.2865654137     4.1728221256
    6      O      -0.2976508242     0.0940669185     2.2775556931
 ----------------------------------------------------------------
 Nuclear Repulsion Energy =         228.67276441 hartrees
 There are       24 alpha and       22 beta electrons
 Requested basis set is 6-311+G(2df,2pd)
 There are 48 shells and 204 basis functions

 Total QAlloc Memory Limit   2000 MB
 Mega-Array Size       188 MB
 MEM_STATIC part       192 MB

                       Distance Matrix (Angstroms)
             N (  1)   O (  2)   O (  3)   N (  4)   O (  5)
   O (  2)  1.183678
   O (  3)  1.174858  2.135270
   N (  4)  2.658141  3.739191  2.694393
   O (  5)  3.291369  4.328968  3.265627  1.175468
   O (  6)  1.529457  2.324335  2.262400  1.630965  2.354858
 
 A cutoff of  1.0D-09 yielded   1019 shell pairs
 There are     18976 function pairs (     24883 Cartesian)
 Smallest overlap matrix eigenvalue = 7.03E-04

 Scale SEOQF with 1.000000e-01/1.000000e-01/1.000000e-01

 Standard Electronic Orientation quadrupole field applied
 Nucleus-field energy     =    -0.0000000359 hartrees
 Requested basis set is 6-31G(d)
 There are 24 shells and 84 basis functions
 A cutoff of  1.0D-09 yielded    265 shell pairs
 There are      3497 function pairs (      4021 Cartesian)
 Smallest overlap matrix eigenvalue = 5.47E-03
 Guess from superposition of atomic densities
 Warning:  Energy on first SCF cycle will be non-variational
 SAD guess density has 46.000000 electrons
 Long-range K will be added via erf
 Coulomb attenuation parameter = 0.2 bohr**(-1)
 An unrestricted hybrid HF-DFT SCF calculation will be
 performed using Relaxed Constraint Minimization + Pulay DIIS
 Exchange:     0.2220 Hartree-Fock + 1.0000 wB97X-D + LR-HF
 Correlation:  1.0000 wB97X-D
 Using Euler-Maclaurin-Lebedev (75,302) quadrature formula
 Dispersion:   Grimme D
 SCF converges when DIIS error is below 1.0E-04
 using 6 threads for integral computing
 -------------------------------------------------------
 OpenMP Integral computing Module                
 Release: version 1.0, May 2013, Q-Chem Inc. Pittsburgh 
 -------------------------------------------------------
 using 6 threads for integral computing
 -------------------------------------------------------
 OpenMP Integral computing Module                
 Release: version 1.0, May 2013, Q-Chem Inc. Pittsburgh 
 -------------------------------------------------------
 ---------------------------------------
  Cycle       Energy         DIIS Error
 ---------------------------------------
    1    -410.9168706628      8.68E-02
    2    -409.6571416135      1.91E-02
    3    -409.7592735751      4.11E-03
    4    -409.9027861005      4.30E-03
    5    -409.9081425062      6.68E-04 Done RCA. Switching to DIIS
    6    -409.9155982441      5.94E-04
    7    -409.9160735237      7.87E-05 Convergence criterion met
 ---------------------------------------
 <S^2> = 2.0173
 SCF time:  CPU 12.79 s  wall 2.14 s
 SCF   energy in the small basis set = -409.91607352
 Total energy in the small basis set = -409.91607352
 ----------------------------------------------------
  Cycle       Energy    
 ----------------------------------------------------
    1     -41.7197576276     -4.17E+01
 Long-range K will be added via erf
 Coulomb attenuation parameter = 0.2 bohr**(-1)
 An unrestricted hybrid HF-DFT SCF calculation will be
 performed using Relaxed Constraint Minimization + Pulay DIIS
 Exchange:     0.2220 Hartree-Fock + 1.0000 wB97X-D + LR-HF
 Correlation:  1.0000 wB97X-D
 Using Euler-Maclaurin-Lebedev (75,302) quadrature formula
 Dispersion:   Grimme D
 SCF converges when DIIS error is below 1.0E-05
 Basis2 calculation detected. Using small basis as guess for larger.
 SCFMinFind is unable to tell whether the solution found is close.
 Resetting ReadMinima to 0 and attempting to follow guess.
 SCFMinFind following SCF Guess.
 using 6 threads for integral computing
 -------------------------------------------------------
 OpenMP Integral computing Module                
 Release: version 1.0, May 2013, Q-Chem Inc. Pittsburgh 
 -------------------------------------------------------
 using 6 threads for integral computing
 -------------------------------------------------------
 OpenMP Integral computing Module                
 Release: version 1.0, May 2013, Q-Chem Inc. Pittsburgh 
 -------------------------------------------------------
 ---------------------------------------
  Cycle       Energy         DIIS Error
 ---------------------------------------
    1    -410.0053119552      8.02E-03
    2    -410.0163337508      4.12E-03
    3    -410.0373039712      1.06E-03
    4    -410.0667511768      1.15E-03
    5    -410.0686517671      1.79E-04 Done RCA. Switching to DIIS
    6    -410.0713772176      1.87E-04
    7    -410.0715843292      4.87E-05
    8    -410.0716356712      2.22E-05
    9    -410.0716581892      1.01E-05
   10    -410.0716650692      5.08E-06 Convergence criterion met
 ---------------------------------------
 <S^2> = 2.0205
 SCF time:  CPU 62.06 s  wall 10.37 s
 SCF   energy in the final basis set = -410.07166507
 Total energy in the final basis set = -410.07166507
 
 --------------------------------------------------------------
 
                    Orbital Energies (a.u.)
 --------------------------------------------------------------
 
 Alpha MOs
 -- Occupied --
-19.4011 -19.4003 -19.3603 -19.3488 -14.7688 -14.6196  -1.4396  -1.3667
 -1.2609  -1.1797  -0.8645  -0.7772  -0.7186  -0.7118  -0.6802  -0.6567
 -0.6340  -0.6304  -0.4955  -0.4860  -0.4679  -0.4603  -0.4455  -0.3395
 -- Virtual --
 -0.0241  -0.0017   0.0515   0.1018   0.1200   0.1351   0.1391   0.1682
  0.1762   0.1838   0.2269   0.2415   0.2482   0.2691   0.2765   0.2859
  0.3053   0.3328   0.3442   0.3476   0.3535   0.3600   0.3657   0.3886
  0.4011   0.4329   0.4406   0.4521   0.4945   0.5256   0.7427   0.7697
  0.8060   0.8200   0.8530   0.9015   0.9311   0.9424   0.9687   1.0115
  1.0355   1.0436   1.0603   1.0722   1.0828   1.0958   1.1231   1.1275
  1.1402   1.1518   1.1597   1.1693   1.2190   1.2510   1.2852   1.3265
  1.4066   1.4535   1.5172   1.5386   1.5729   1.5905   1.5987   1.6199
  1.6750   1.6888   1.7103   1.7607   1.8163   1.8619   1.8820   1.8907
  1.9542   2.1187   2.1770   2.2355   2.3093   2.3650   2.4053   2.4885
  2.5393   2.5469   2.6583   2.7836   3.4839   3.5474   3.5795   3.6114
  3.6329   3.6645   3.6903   3.7120   3.7404   3.7779   3.7881   3.8890
  3.9342   3.9560   4.0193   4.0202   4.0819   4.4367   4.4619   4.4835
  4.4957   4.5914   4.6563   4.6593   4.6760   4.7100   4.7564   4.7940
  4.8342   4.9332   4.9961   5.0073   5.0177   5.0323   5.0363   5.0414
  5.0565   5.0742   5.0813   5.0941   5.1212   5.1332   5.1543   5.1675
  5.1955   5.2601   5.3151   5.3705   5.4059   5.4148   5.4204   5.4663
  5.5065   5.5690   5.6426   5.6664   5.7288   5.7402   5.9579   6.1089
  6.2437   6.4377   6.5684   6.6233   6.6694   6.7230   6.7512   6.7646
  6.7888   6.8190   6.8759   6.8882   6.9239   6.9931   7.0654   7.0886
  7.1579   7.1751   7.2003   7.2572   7.2795   7.3850   7.4124   7.5641
  7.6114   7.6793   7.7238   7.8227   7.8691   8.2438  35.9032  36.1314
 49.9767  50.1513  50.2293  50.2588
 
 Beta MOs
 -- Occupied --
-19.3882 -19.3811 -19.3589 -19.3492 -14.7682 -14.6028  -1.4370  -1.3270
 -1.2592  -1.1420  -0.8236  -0.7451  -0.7104  -0.7044  -0.6735  -0.5996
 -0.5800  -0.5585  -0.4685  -0.4674  -0.4633  -0.4478
 -- Virtual --
 -0.1552  -0.0234  -0.0198   0.0424   0.0854   0.1105   0.1239   0.1405
  0.1432   0.1695   0.1799   0.1884   0.2282   0.2453   0.2513   0.2704
  0.2797   0.2884   0.3127   0.3343   0.3452   0.3497   0.3557   0.3616
  0.3692   0.3963   0.4108   0.4362   0.4458   0.4557   0.5113   0.5296
  0.7514   0.7774   0.8202   0.8391   0.8662   0.9058   0.9336   0.9490
  0.9782   1.0209   1.0430   1.0585   1.0721   1.0842   1.0933   1.1091
  1.1331   1.1384   1.1524   1.1566   1.1744   1.1860   1.2308   1.2625
  1.2995   1.3388   1.4205   1.4647   1.5225   1.5413   1.5764   1.6062
  1.6163   1.6421   1.6881   1.7071   1.7310   1.7722   1.8202   1.8705
  1.8923   1.9029   1.9700   2.1321   2.1909   2.2482   2.3239   2.3737
  2.4185   2.5026   2.5445   2.5515   2.6657   2.7872   3.5016   3.5776
  3.5951   3.6306   3.6540   3.6669   3.7058   3.7234   3.7535   3.8028
  3.8527   3.9044   3.9515   3.9884   4.0206   4.0368   4.0937   4.4387
  4.4665   4.4856   4.4977   4.6224   4.6630   4.6882   4.7081   4.7377
  4.7954   4.8173   4.8749   4.9820   5.0154   5.0291   5.0393   5.0417
  5.0504   5.0631   5.0786   5.0800   5.1023   5.1127   5.1341   5.1595
  5.1815   5.1966   5.2117   5.2895   5.3358   5.3830   5.4112   5.4197
  5.4373   5.4777   5.5318   5.5978   5.6693   5.6793   5.7412   5.7455
  5.9700   6.1492   6.2485   6.4492   6.5697   6.6675   6.7083   6.7654
  6.7912   6.7955   6.8119   6.8301   6.8779   6.8907   6.9567   7.0106
  7.0842   7.1000   7.1732   7.2003   7.2283   7.2665   7.3090   7.3880
  7.4371   7.5712   7.6386   7.7088   7.7371   7.8438   7.8718   8.2456
 35.9235  36.1321  49.9908  50.1693  50.2306  50.2587
 --------------------------------------------------------------
 
 -----------------------------------------------------------------
                    Cartesian Multipole Moments
 -----------------------------------------------------------------
    Charge (ESU x 10^10)
                 0.0000
    Dipole Moment (Debye)
         X      -0.1466      Y      -0.5347      Z       0.0995
       Tot       0.5633
    Quadrupole Moments (Debye-Ang)
        XX     -33.0750     XY      -0.7852     YY     -32.7514
        XZ      -1.4937     YZ      -0.5962     ZZ     -31.8594
    Octopole Moments (Debye-Ang^2)
       XXX     -33.4159    XXY     -12.4998    XYY     -11.1839
       YYY     -40.5305    XXZ     -95.9236    XYZ      -3.6152
       YYZ     -89.7070    XZZ     -16.3686    YZZ     -10.0714
       ZZZ    -274.5733
    Hexadecapole Moments (Debye-Ang^3)
      XXXX    -139.8077   XXXY     -64.7251   XXYY     -86.2716
      XYYY     -66.0813   YYYY    -378.1451   XXXZ     -87.2618
      XXYZ     -13.5666   XYYZ     -27.7223   YYYZ     -38.3597
      XXZZ    -321.0078   XYZZ     -35.0536   YYZZ    -331.0129
      XZZZ     -97.1923   YZZZ     -11.8934   ZZZZ   -1698.4643
 -----------------------------------------------------------------
Archival summary:
1\1\centos77-c5\SP\ProcedureUnspecified\BasisUnspecified\42(3)\shihchen\MonJul1315:35:062020MonJul1315:35:062020\0\\#,ProcedureUnspecified,BasisUnspecified,\\0,3\N\O,1,1.17486\O,1,1.18368,2,129.737\O,1,1.52946,2,112.909,3,178.028,0\N,4,1.63097,1,114.469,2,4.5067,0\O,5,1.17547,4,113.088,1,95.682,0\\\@

 Total job time:  14.79s(wall), 79.09s(cpu) 
 Mon Jul 13 15:35:06 2020

        *************************************************************
        *                                                           *
        *  Thank you very much for using Q-Chem.  Have a nice day.  *
        *                                                           *
        *************************************************************


