                  Welcome to Q-Chem
     A Quantum Leap Into The Future Of Chemistry


 Q-Chem 5.3 (devel), Q-Chem, Inc., Pleasanton, CA (2020)

 Yihan Shao,  Zhengting Gan,  E. Epifanovsky,  A. T. B. Gilbert,  M. Wormit,  
 J. Kussmann,  A. W. Lange,  A. Behn,  Jia Deng,  Xintian Feng,  D. Ghosh,  
 M. Goldey,  P. R. Horn,  L. D. Jacobson,  I. Kaliman,  T. Kus,  A. Landau,  
 Jie Liu,  E. I. Proynov,  R. M. Richard,  R. P. Steele,  E. J. Sundstrom,  
 H. L. Woodcock III,  P. M. Zimmerman,  D. Zuev,  B. Alam,  B. Albrecht,  
 E. Alguire,  S. A. Baeppler,  D. Barton,  Z. Benda,  Y. A. Bernard,  
 E. J. Berquist,  K. B. Bravaya,  H. Burton,  K. Carter-Fenk,  D. Casanova,  
 Chun-Min Chang,  Yunqing Chen,  A. Chien,  K. D. Closser,  M. P. Coons,  
 S. Coriani,  S. Dasgupta,  A. L. Dempwolff,  M. Diedenhofen,  Hainam Do,  
 R. G. Edgar,  Po-Tung Fang,  S. Faraji,  S. Fatehi,  Qingguo Feng,  
 J. Fosso-Tande,  J. Gayvert,  Qinghui Ge,  A. Ghysels,  G. Gidofalvi,  
 J. Gomes,  J. Gonthier,  A. Gunina,  D. Hait,  M. W. D. Hanson-Heine,  
 P. H. P. Harbach,  A. W. Hauser,  M. F. Herbst,  J. E. Herr,  
 E. G. Hohenstein,  Z. C. Holden,  Kerwin Hui,  B. C. Huynh,  T.-C. Jagau,  
 Hyunjun Ji,  B. Kaduk,  K. Khistyaev,  Jaehoon Kim,  P. Klunzinger,  K. Koh,  
 D. Kosenkov,  L. Koulias,  T. Kowalczyk,  C. M. Krauter,  A. Kunitsa,  
 Ka Un Lao,  A. Laurent,  K. V. Lawler,  Joonho Lee,  D. Lefrancois,  
 S. Lehtola,  D. S. Levine,  Yi-Pei Li,  You-Sheng Lin,  Fenglai Liu,  
 Kuan-Yu Liu,  E. Livshits,  M. Loipersberger,  A. Luenser,  P. Manohar,  
 E. Mansoor,  S. F. Manzer,  Shan-Ping Mao,  Yuezhi Mao,  N. Mardirossian,  
 A. V. Marenich,  T. Markovich,  L. A. Martinez-Martinez,  S. A. Maurer,  
 N. J. Mayhall,  S. C. McKenzie,  J.-M. Mewes,  P. Morgante,  A. F. Morrison,  
 J. W. Mullinax,  K. Nanda,  T. S. Nguyen-Beck,  R. Olivares-Amaya,  
 K. J. Oosterbaan,  J. A. Parkhill,  S. K. Paul,  F. Pavosevic,  Zheng Pei,  
 T. M. Perrine,  F. Plasser,  P. Pokhilko,  S. Prager,  A. Prociuk,  
 E. Ramos,  B. Rana,  D. R. Rehn,  F. Rob,  M. Scheurer,  M. Schneider,  
 N. Sergueev,  S. M. Sharada,  S. Sharma,  D. W. Small,  T. Stauch,  
 C. J. Stein,  T. Stein,  Yu-Chuan Su,  S. P. Veccham,  Zhen Tao,  
 A. J. W. Thom,  A. Tkatchenko,  T. Tsuchimochi,  N. M. Tubman,  L. Vogt,  
 M. L. Vidal,  O. Vydrov,  M. A. Watson,  J. Wenzel,  M. de Wergifosse,  
 T. A. Wesolowski,  A. White,  J. Witte,  A. Yamada,  Jun Yang,  K. Yao,  
 S. Yeganeh,  S. R. Yost,  Zhi-Qiang You,  A. Zech,  Igor Ying Zhang,  
 Xing Zhang,  Yan Zhao,  Ying Zhu,  B. R. Brooks,  G. K. L. Chan,  
 C. J. Cramer,  M. S. Gordon,  W. J. Hehre,  A. Klamt,  M. W. Schmidt,  
 C. D. Sherrill,  D. G. Truhlar,  A. Aspuru-Guzik,  R. Baer,  A. T. Bell,  
 N. A. Besley,  Jeng-Da Chai,  A. E. DePrince, III,  R. A. DiStasio Jr.,  
 A. Dreuw,  B. D. Dunietz,  T. R. Furlani,  Chao-Ping Hsu,  Yousung Jung,  
 Jing Kong,  D. S. Lambrecht,  WanZhen Liang,  C. Ochsenfeld,  
 V. A. Rassolov,  L. V. Slipchenko,  J. E. Subotnik,  T. Van Voorhis,  
 J. M. Herbert,  A. I. Krylov,  P. M. W. Gill,  M. Head-Gordon

 Contributors to earlier versions of Q-Chem not listed above: 
 R. D. Adamson,  B. Austin,  J. Baker,  G. J. O. Beran,  K. Brandhorst,  
 S. T. Brown,  E. F. C. Byrd,  A. K. Chakraborty,  C.-L. Cheng,  
 Siu Hung Chien,  D. M. Chipman,  D. L. Crittenden,  H. Dachsel,  
 R. J. Doerksen,  A. D. Dutoi,  L. Fusti-Molnar,  W. A. Goddard III,  
 A. Golubeva-Zadorozhnaya,  S. R. Gwaltney,  G. Hawkins,  A. Heyden,  
 S. Hirata,  G. Kedziora,  F. J. Keil,  C. Kelley,  Jihan Kim,  R. A. King,  
 R. Z. Khaliullin,  P. P. Korambath,  W. Kurlancheek,  A. M. Lee,  M. S. Lee,  
 S. V. Levchenko,  Ching Yeh Lin,  D. Liotard,  R. C. Lochan,  I. Lotan,  
 P. E. Maslen,  N. Nair,  D. P. O'Neill,  D. Neuhauser,  E. Neuscamman,  
 C. M. Oana,  R. Olson,  B. Peters,  R. Peverati,  P. A. Pieniazek,  
 Y. M. Rhee,  J. Ritchie,  M. A. Rohrdanz,  E. Rosta,  N. J. Russ,  
 H. F. Schaefer III,  N. E. Schultz,  N. Shenvi,  A. C. Simmonett,  A. Sodt,  
 D. Stuck,  K. S. Thanthiriwatte,  V. Vanovschi,  Tao Wang,  A. Warshel,  
 C. F. Williams,  Q. Wu,  X. Xu,  W. Zhang

 Please cite Q-Chem as follows:
 Y. Shao et al., Mol. Phys. 113, 184-215 (2015)
 DOI: 10.1080/00268976.2014.952696

 Q-Chem 5.3.0 for Intel X86 EM64T Linux

 Parts of Q-Chem use Armadillo 9.800.1 (Horizon Scraper).
 http://arma.sourceforge.net/

 Q-Chem begins on Mon Jul 13 15:24:02 2020  

Host: centos77-c5
0

     Scratch files written to /tmp/29025.centos77-h1/qchem106743//
Processing $rem in /opt/qchem-5.3.0-intel2020u1//config/preferences:
Processing $rem in /home/shihchengli/.qchemrc:

Checking the input file for inconsistencies... 	...done.

--------------------------------------------------------------
User input:
--------------------------------------------------------------
$rem
   JOBTYPE  sp
   EXCHANGE   omegaB97X-D
   BASIS   6-311+G(2df,2pd)
   UNRESTRICTED   True
   max_scf_cycles   250
   geom_opt_max_cycles   1500
   basis2 6-31G*
   scf_algorithm rca_diis
   SYM_IGNORE  TRUE
   print_input   true
   geom_opt_dmax   80
   pop_mulliken false
   XC_GRID 000075000302
$end

$molecule
0 3
N       0.5625335544     1.1000684825     2.4804056060
O       0.4872125316     2.1817934857     1.9851570773
O       1.3218562673     0.6505847880     3.2744777111
N       0.2295349607     -0.9544451676     3.1365004114
O       -0.2663928121     -1.0739394024     4.1747429638
O       -0.3897533719     0.1909269237     2.0490161204
$end
--------------------------------------------------------------
 ----------------------------------------------------------------
             Standard Nuclear Orientation (Angstroms)
    I     Atom           X                Y                Z
 ----------------------------------------------------------------
    1      N       0.5625335544     1.1000684825     2.4804056060
    2      O       0.4872125316     2.1817934857     1.9851570773
    3      O       1.3218562673     0.6505847880     3.2744777111
    4      N       0.2295349607    -0.9544451676     3.1365004114
    5      O      -0.2663928121    -1.0739394024     4.1747429638
    6      O      -0.3897533719     0.1909269237     2.0490161204
 ----------------------------------------------------------------
 Nuclear Repulsion Energy =         243.07558383 hartrees
 There are       24 alpha and       22 beta electrons
 Requested basis set is 6-311+G(2df,2pd)
 There are 48 shells and 204 basis functions

 Total QAlloc Memory Limit   2000 MB
 Mega-Array Size       188 MB
 MEM_STATIC part       192 MB

                       Distance Matrix (Angstroms)
             N (  1)   O (  2)   O (  3)   N (  4)   O (  5)
   O (  2)  1.192088
   O (  3)  1.187079  2.168773
   N (  4)  2.182287  3.350818  1.946362
   O (  5)  2.878230  3.995248  2.511373  1.156793
   O (  6)  1.385455  2.176395  2.154681  1.696472  2.476655
 
 A cutoff of  1.0D-09 yielded   1064 shell pairs
 There are     19795 function pairs (     26029 Cartesian)
 Smallest overlap matrix eigenvalue = 3.56E-04

 Scale SEOQF with 1.000000e-01/1.000000e-01/1.000000e-01

 Standard Electronic Orientation quadrupole field applied
 Nucleus-field energy     =    -0.0000000377 hartrees
 Requested basis set is 6-31G(d)
 There are 24 shells and 84 basis functions
 A cutoff of  1.0D-09 yielded    275 shell pairs
 There are      3565 function pairs (      4096 Cartesian)
 Smallest overlap matrix eigenvalue = 4.88E-03
 Guess from superposition of atomic densities
 Warning:  Energy on first SCF cycle will be non-variational
 SAD guess density has 46.000000 electrons
 Long-range K will be added via erf
 Coulomb attenuation parameter = 0.2 bohr**(-1)
 An unrestricted hybrid HF-DFT SCF calculation will be
 performed using Relaxed Constraint Minimization + Pulay DIIS
 Exchange:     0.2220 Hartree-Fock + 1.0000 wB97X-D + LR-HF
 Correlation:  1.0000 wB97X-D
 Using Euler-Maclaurin-Lebedev (75,302) quadrature formula
 Dispersion:   Grimme D
 SCF converges when DIIS error is below 1.0E-04
 using 6 threads for integral computing
 -------------------------------------------------------
 OpenMP Integral computing Module                
 Release: version 1.0, May 2013, Q-Chem Inc. Pittsburgh 
 -------------------------------------------------------
 using 6 threads for integral computing
 -------------------------------------------------------
 OpenMP Integral computing Module                
 Release: version 1.0, May 2013, Q-Chem Inc. Pittsburgh 
 -------------------------------------------------------
 ---------------------------------------
  Cycle       Energy         DIIS Error
 ---------------------------------------
    1    -411.1826807384      9.07E-02
    2    -409.6095409756      1.98E-02
    3    -409.7164723395      4.34E-03
    4    -409.8674729210      4.55E-03
    5    -409.8733198362      6.01E-04 Done RCA. Switching to DIIS
    6    -409.8810718004      5.05E-04
    7    -409.8814575807      1.28E-04
    8    -409.8815474939      7.71E-05 Convergence criterion met
 ---------------------------------------
 <S^2> = 2.0143
 SCF time:  CPU 15.01 s  wall 2.51 s
 SCF   energy in the small basis set = -409.88154749
 Total energy in the small basis set = -409.88154749
 ----------------------------------------------------
  Cycle       Energy    
 ----------------------------------------------------
    1     -41.8283267032     -4.18E+01
 Long-range K will be added via erf
 Coulomb attenuation parameter = 0.2 bohr**(-1)
 An unrestricted hybrid HF-DFT SCF calculation will be
 performed using Relaxed Constraint Minimization + Pulay DIIS
 Exchange:     0.2220 Hartree-Fock + 1.0000 wB97X-D + LR-HF
 Correlation:  1.0000 wB97X-D
 Using Euler-Maclaurin-Lebedev (75,302) quadrature formula
 Dispersion:   Grimme D
 SCF converges when DIIS error is below 1.0E-05
 Basis2 calculation detected. Using small basis as guess for larger.
 SCFMinFind is unable to tell whether the solution found is close.
 Resetting ReadMinima to 0 and attempting to follow guess.
 SCFMinFind following SCF Guess.
 using 6 threads for integral computing
 -------------------------------------------------------
 OpenMP Integral computing Module                
 Release: version 1.0, May 2013, Q-Chem Inc. Pittsburgh 
 -------------------------------------------------------
 using 6 threads for integral computing
 -------------------------------------------------------
 OpenMP Integral computing Module                
 Release: version 1.0, May 2013, Q-Chem Inc. Pittsburgh 
 -------------------------------------------------------
 ---------------------------------------
  Cycle       Energy         DIIS Error
 ---------------------------------------
    1    -409.9773755879      7.99E-03
    2    -409.9941276624      3.69E-03
    3    -410.0111999498      8.99E-04 Done RCA. Switching to DIIS
    4    -410.0347296689      8.78E-04
    5    -410.0372376797      1.77E-04
    6    -410.0374756931      5.01E-05
    7    -410.0376198353      2.45E-05
    8    -410.0376894294      2.09E-05
    9    -410.0377260084      1.23E-05
   10    -410.0377434533      1.08E-05
   11    -410.0377529123      4.40E-06 Convergence criterion met
 ---------------------------------------
 <S^2> = 2.0170
 SCF time:  CPU 71.34 s  wall 11.92 s
 SCF   energy in the final basis set = -410.03775291
 Total energy in the final basis set = -410.03775291
 
 --------------------------------------------------------------
 
                    Orbital Energies (a.u.)
 --------------------------------------------------------------
 
 Alpha MOs
 -- Occupied --
-19.4124 -19.3929 -19.3449 -19.3421 -14.7712 -14.6151  -1.4556  -1.3725
 -1.2605  -1.2168  -0.8569  -0.7803  -0.7373  -0.7259  -0.6968  -0.6585
 -0.6335  -0.6254  -0.4995  -0.4941  -0.4645  -0.4546  -0.4505  -0.3097
 -- Virtual --
 -0.0245  -0.0022   0.0806   0.1204   0.1333   0.1365   0.1431   0.1720
  0.1818   0.1863   0.2274   0.2455   0.2553   0.2732   0.2873   0.3000
  0.3119   0.3297   0.3410   0.3465   0.3562   0.3587   0.3684   0.3931
  0.4022   0.4309   0.4403   0.4558   0.5114   0.5165   0.7482   0.7975
  0.8172   0.8210   0.8562   0.8979   0.9223   0.9725   0.9797   0.9983
  1.0170   1.0239   1.0670   1.0789   1.0969   1.1059   1.1254   1.1347
  1.1416   1.1570   1.1838   1.1915   1.2420   1.2451   1.2690   1.3284
  1.4333   1.5320   1.5503   1.5592   1.5702   1.5950   1.6155   1.6176
  1.6964   1.7021   1.7696   1.8019   1.8658   1.9157   1.9706   2.0269
  2.1482   2.2077   2.2368   2.3312   2.3703   2.3848   2.4217   2.5066
  2.5434   2.6087   2.7425   2.8375   3.5243   3.5403   3.5774   3.6410
  3.6601   3.6709   3.6988   3.7330   3.7594   3.7765   3.8074   3.8973
  3.9752   3.9888   4.0188   4.0761   4.1098   4.4409   4.4691   4.4968
  4.5150   4.6056   4.6310   4.6700   4.6939   4.7039   4.7349   4.7699
  4.8732   4.9492   4.9776   5.0027   5.0210   5.0355   5.0422   5.0690
  5.0757   5.0988   5.1195   5.1314   5.1776   5.1924   5.2054   5.2152
  5.2526   5.2858   5.3400   5.4281   5.4397   5.4645   5.5145   5.5269
  5.5497   5.6282   5.6803   5.7210   5.8479   5.9407   5.9457   6.1319
  6.2560   6.5288   6.6988   6.7068   6.7205   6.7542   6.7602   6.7815
  6.8395   6.8462   6.8870   6.9622   7.0516   7.0757   7.1161   7.1673
  7.1755   7.2093   7.2221   7.2815   7.3603   7.4508   7.5213   7.6314
  7.6404   7.7528   7.8142   7.8970   7.9675   8.3017  35.9861  36.1465
 50.0350  50.1975  50.2563  50.3162
 
 Beta MOs
 -- Occupied --
-19.3982 -19.3781 -19.3440 -19.3398 -14.7712 -14.5943  -1.4481  -1.3389
 -1.2558  -1.1842  -0.8091  -0.7460  -0.7223  -0.7162  -0.6769  -0.6165
 -0.5847  -0.5665  -0.4801  -0.4718  -0.4615  -0.4250
 -- Virtual --
 -0.1539  -0.0207   0.0168   0.0504   0.0890   0.1253   0.1387   0.1424
  0.1542   0.1761   0.1874   0.1904   0.2293   0.2492   0.2579   0.2752
  0.2918   0.3032   0.3174   0.3323   0.3440   0.3481   0.3576   0.3619
  0.3713   0.4026   0.4063   0.4331   0.4427   0.4659   0.5199   0.5311
  0.7558   0.8139   0.8248   0.8419   0.8701   0.9042   0.9319   0.9766
  0.9933   1.0082   1.0272   1.0318   1.0750   1.0925   1.1042   1.1158
  1.1380   1.1394   1.1551   1.1615   1.1945   1.2056   1.2576   1.2632
  1.2833   1.3460   1.4406   1.5457   1.5550   1.5687   1.5868   1.6069
  1.6277   1.6374   1.7077   1.7159   1.7770   1.8104   1.8832   1.9309
  1.9789   2.0389   2.1600   2.2173   2.2575   2.3401   2.3844   2.3936
  2.4431   2.5176   2.5472   2.6171   2.7507   2.8437   3.5514   3.5583
  3.6005   3.6576   3.6730   3.6878   3.7089   3.7439   3.7929   3.8159
  3.8401   3.9262   3.9895   4.0096   4.0353   4.0950   4.1207   4.4456
  4.4757   4.5023   4.5194   4.6245   4.6637   4.6998   4.7161   4.7367
  4.7502   4.8060   4.9173   4.9814   4.9961   5.0292   5.0470   5.0494
  5.0667   5.0824   5.0903   5.1151   5.1245   5.1540   5.1950   5.2179
  5.2307   5.2411   5.2667   5.3128   5.3546   5.4328   5.4551   5.4759
  5.5376   5.5509   5.5724   5.6440   5.7088   5.7312   5.8588   5.9514
  5.9807   6.1582   6.2633   6.5318   6.7075   6.7402   6.7661   6.7855
  6.8043   6.8092   6.8461   6.8529   6.8949   6.9983   7.0725   7.0888
  7.1324   7.1794   7.1847   7.2324   7.2545   7.2894   7.3722   7.4825
  7.5444   7.6486   7.6636   7.7771   7.8222   7.9046   7.9830   8.3049
 36.0109  36.1469  50.0500  50.2111  50.2573  50.3184
 --------------------------------------------------------------
 
 -----------------------------------------------------------------
                    Cartesian Multipole Moments
 -----------------------------------------------------------------
    Charge (ESU x 10^10)
                -0.0000
    Dipole Moment (Debye)
         X      -0.1166      Y      -0.8429      Z      -0.0209
       Tot       0.8512
    Quadrupole Moments (Debye-Ang)
        XX     -32.3534     XY      -1.4835     YY     -34.0479
        XZ      -1.3141     YZ      -1.2736     ZZ     -32.8593
    Octopole Moments (Debye-Ang^2)
       XXX     -32.2008    XXY     -12.9336    XYY     -11.6076
       YYY     -41.7485    XXZ     -93.3894    XYZ      -5.5408
       YYZ     -93.3723    XZZ     -15.8919    YZZ     -11.9653
       ZZZ    -280.3597
    Hexadecapole Moments (Debye-Ang^3)
      XXXX    -108.2730   XXXY     -42.4542   XXYY     -68.1539
      XYYY     -46.8274   YYYY    -311.6807   XXXZ     -93.4561
      XXYZ     -18.0502   XYYZ     -31.3341   YYYZ     -51.0182
      XXZZ    -308.7703   XYZZ     -33.7749   YYZZ    -330.2995
      XZZZ    -106.6344   YZZZ     -28.8002   ZZZZ   -1734.2379
 -----------------------------------------------------------------
Archival summary:
1\1\centos77-c5\SP\ProcedureUnspecified\BasisUnspecified\42(3)\shihchen\MonJul1315:24:192020MonJul1315:24:192020\0\\#,ProcedureUnspecified,BasisUnspecified,\\0,3\N\O,1,1.18708\O,1,1.19209,2,131.446\O,1,1.38546,2,113.546,3,179.097,0\N,4,1.69647,1,89.5718,2,3.54428,0\O,5,1.15679,4,119.247,1,95.6994,0\\\@

 Total job time:  16.94s(wall), 90.55s(cpu) 
 Mon Jul 13 15:24:19 2020

        *************************************************************
        *                                                           *
        *  Thank you very much for using Q-Chem.  Have a nice day.  *
        *                                                           *
        *************************************************************


