                  Welcome to Q-Chem
     A Quantum Leap Into The Future Of Chemistry


 Q-Chem 5.3 (devel), Q-Chem, Inc., Pleasanton, CA (2020)

 Yihan Shao,  Zhengting Gan,  E. Epifanovsky,  A. T. B. Gilbert,  M. Wormit,  
 J. Kussmann,  A. W. Lange,  A. Behn,  Jia Deng,  Xintian Feng,  D. Ghosh,  
 M. Goldey,  P. R. Horn,  L. D. Jacobson,  I. Kaliman,  T. Kus,  A. Landau,  
 Jie Liu,  E. I. Proynov,  R. M. Richard,  R. P. Steele,  E. J. Sundstrom,  
 H. L. Woodcock III,  P. M. Zimmerman,  D. Zuev,  B. Alam,  B. Albrecht,  
 E. Alguire,  S. A. Baeppler,  D. Barton,  Z. Benda,  Y. A. Bernard,  
 E. J. Berquist,  K. B. Bravaya,  H. Burton,  K. Carter-Fenk,  D. Casanova,  
 Chun-Min Chang,  Yunqing Chen,  A. Chien,  K. D. Closser,  M. P. Coons,  
 S. Coriani,  S. Dasgupta,  A. L. Dempwolff,  M. Diedenhofen,  Hainam Do,  
 R. G. Edgar,  Po-Tung Fang,  S. Faraji,  S. Fatehi,  Qingguo Feng,  
 J. Fosso-Tande,  J. Gayvert,  Qinghui Ge,  A. Ghysels,  G. Gidofalvi,  
 J. Gomes,  J. Gonthier,  A. Gunina,  D. Hait,  M. W. D. Hanson-Heine,  
 P. H. P. Harbach,  A. W. Hauser,  M. F. Herbst,  J. E. Herr,  
 E. G. Hohenstein,  Z. C. Holden,  Kerwin Hui,  B. C. Huynh,  T.-C. Jagau,  
 Hyunjun Ji,  B. Kaduk,  K. Khistyaev,  Jaehoon Kim,  P. Klunzinger,  K. Koh,  
 D. Kosenkov,  L. Koulias,  T. Kowalczyk,  C. M. Krauter,  A. Kunitsa,  
 Ka Un Lao,  A. Laurent,  K. V. Lawler,  Joonho Lee,  D. Lefrancois,  
 S. Lehtola,  D. S. Levine,  Yi-Pei Li,  You-Sheng Lin,  Fenglai Liu,  
 Kuan-Yu Liu,  E. Livshits,  M. Loipersberger,  A. Luenser,  P. Manohar,  
 E. Mansoor,  S. F. Manzer,  Shan-Ping Mao,  Yuezhi Mao,  N. Mardirossian,  
 A. V. Marenich,  T. Markovich,  L. A. Martinez-Martinez,  S. A. Maurer,  
 N. J. Mayhall,  S. C. McKenzie,  J.-M. Mewes,  P. Morgante,  A. F. Morrison,  
 J. W. Mullinax,  K. Nanda,  T. S. Nguyen-Beck,  R. Olivares-Amaya,  
 K. J. Oosterbaan,  J. A. Parkhill,  S. K. Paul,  F. Pavosevic,  Zheng Pei,  
 T. M. Perrine,  F. Plasser,  P. Pokhilko,  S. Prager,  A. Prociuk,  
 E. Ramos,  B. Rana,  D. R. Rehn,  F. Rob,  M. Scheurer,  M. Schneider,  
 N. Sergueev,  S. M. Sharada,  S. Sharma,  D. W. Small,  T. Stauch,  
 C. J. Stein,  T. Stein,  Yu-Chuan Su,  S. P. Veccham,  Zhen Tao,  
 A. J. W. Thom,  A. Tkatchenko,  T. Tsuchimochi,  N. M. Tubman,  L. Vogt,  
 M. L. Vidal,  O. Vydrov,  M. A. Watson,  J. Wenzel,  M. de Wergifosse,  
 T. A. Wesolowski,  A. White,  J. Witte,  A. Yamada,  Jun Yang,  K. Yao,  
 S. Yeganeh,  S. R. Yost,  Zhi-Qiang You,  A. Zech,  Igor Ying Zhang,  
 Xing Zhang,  Yan Zhao,  Ying Zhu,  B. R. Brooks,  G. K. L. Chan,  
 C. J. Cramer,  M. S. Gordon,  W. J. Hehre,  A. Klamt,  M. W. Schmidt,  
 C. D. Sherrill,  D. G. Truhlar,  A. Aspuru-Guzik,  R. Baer,  A. T. Bell,  
 N. A. Besley,  Jeng-Da Chai,  A. E. DePrince, III,  R. A. DiStasio Jr.,  
 A. Dreuw,  B. D. Dunietz,  T. R. Furlani,  Chao-Ping Hsu,  Yousung Jung,  
 Jing Kong,  D. S. Lambrecht,  WanZhen Liang,  C. Ochsenfeld,  
 V. A. Rassolov,  L. V. Slipchenko,  J. E. Subotnik,  T. Van Voorhis,  
 J. M. Herbert,  A. I. Krylov,  P. M. W. Gill,  M. Head-Gordon

 Contributors to earlier versions of Q-Chem not listed above: 
 R. D. Adamson,  B. Austin,  J. Baker,  G. J. O. Beran,  K. Brandhorst,  
 S. T. Brown,  E. F. C. Byrd,  A. K. Chakraborty,  C.-L. Cheng,  
 Siu Hung Chien,  D. M. Chipman,  D. L. Crittenden,  H. Dachsel,  
 R. J. Doerksen,  A. D. Dutoi,  L. Fusti-Molnar,  W. A. Goddard III,  
 A. Golubeva-Zadorozhnaya,  S. R. Gwaltney,  G. Hawkins,  A. Heyden,  
 S. Hirata,  G. Kedziora,  F. J. Keil,  C. Kelley,  Jihan Kim,  R. A. King,  
 R. Z. Khaliullin,  P. P. Korambath,  W. Kurlancheek,  A. M. Lee,  M. S. Lee,  
 S. V. Levchenko,  Ching Yeh Lin,  D. Liotard,  R. C. Lochan,  I. Lotan,  
 P. E. Maslen,  N. Nair,  D. P. O'Neill,  D. Neuhauser,  E. Neuscamman,  
 C. M. Oana,  R. Olson,  B. Peters,  R. Peverati,  P. A. Pieniazek,  
 Y. M. Rhee,  J. Ritchie,  M. A. Rohrdanz,  E. Rosta,  N. J. Russ,  
 H. F. Schaefer III,  N. E. Schultz,  N. Shenvi,  A. C. Simmonett,  A. Sodt,  
 D. Stuck,  K. S. Thanthiriwatte,  V. Vanovschi,  Tao Wang,  A. Warshel,  
 C. F. Williams,  Q. Wu,  X. Xu,  W. Zhang

 Please cite Q-Chem as follows:
 Y. Shao et al., Mol. Phys. 113, 184-215 (2015)
 DOI: 10.1080/00268976.2014.952696

 Q-Chem 5.3.0 for Intel X86 EM64T Linux

 Parts of Q-Chem use Armadillo 9.800.1 (Horizon Scraper).
 http://arma.sourceforge.net/

 Q-Chem begins on Mon Jul 13 15:44:02 2020  

Host: centos77-c5
0

     Scratch files written to /tmp/29025.centos77-h1/qchem72335//
Processing $rem in /opt/qchem-5.3.0-intel2020u1//config/preferences:
Processing $rem in /home/shihchengli/.qchemrc:

Checking the input file for inconsistencies... 	...done.

--------------------------------------------------------------
User input:
--------------------------------------------------------------
$rem
   JOBTYPE  sp
   EXCHANGE   omegaB97X-D
   BASIS   6-311+G(2df,2pd)
   UNRESTRICTED   True
   max_scf_cycles   250
   geom_opt_max_cycles   1500
   basis2 6-31G*
   scf_algorithm rca_diis
   SYM_IGNORE  TRUE
   print_input   true
   geom_opt_dmax   80
   pop_mulliken false
   XC_GRID 000075000302
$end

$molecule
0 3
N       0.7550628357     1.2854081300     2.4908391415
O       0.3249631916     2.1796038745     1.8278785682
O       1.6178048379     0.9258883931     3.2316017517
N       0.0415140102     -1.1665704389     3.1389480520
O       -0.4732939280     -1.3129700056     4.1793809243
O       -0.3210598173     0.1836291567     2.2316514523
$end
--------------------------------------------------------------
 ----------------------------------------------------------------
             Standard Nuclear Orientation (Angstroms)
    I     Atom           X                Y                Z
 ----------------------------------------------------------------
    1      N       0.7550628357     1.2854081300     2.4908391415
    2      O       0.3249631916     2.1796038745     1.8278785682
    3      O       1.6178048379     0.9258883931     3.2316017517
    4      N       0.0415140102    -1.1665704389     3.1389480520
    5      O      -0.4732939280    -1.3129700056     4.1793809243
    6      O      -0.3210598173     0.1836291567     2.2316514523
 ----------------------------------------------------------------
 Nuclear Repulsion Energy =         227.62644677 hartrees
 There are       24 alpha and       22 beta electrons
 Requested basis set is 6-311+G(2df,2pd)
 There are 48 shells and 204 basis functions

 Total QAlloc Memory Limit   2000 MB
 Mega-Array Size       188 MB
 MEM_STATIC part       192 MB

                       Distance Matrix (Angstroms)
             N (  1)   O (  2)   O (  3)   N (  4)   O (  5)
   O (  2)  1.193352
   O (  3)  1.192605  2.283349
   N (  4)  2.634653  3.605014  2.621385
   O (  5)  3.333407  4.285423  3.206784  1.170026
   O (  6)  1.561773  2.136421  2.304354  1.666639  2.461023
 
 A cutoff of  1.0D-09 yielded   1019 shell pairs
 There are     18995 function pairs (     24909 Cartesian)
 Smallest overlap matrix eigenvalue = 6.39E-04

 Scale SEOQF with 1.000000e-01/1.000000e-01/1.000000e-01

 Standard Electronic Orientation quadrupole field applied
 Nucleus-field energy     =    -0.0000000364 hartrees
 Requested basis set is 6-31G(d)
 There are 24 shells and 84 basis functions
 A cutoff of  1.0D-09 yielded    268 shell pairs
 There are      3537 function pairs (      4065 Cartesian)
 Smallest overlap matrix eigenvalue = 4.05E-03
 Guess from superposition of atomic densities
 Warning:  Energy on first SCF cycle will be non-variational
 SAD guess density has 46.000000 electrons
 Long-range K will be added via erf
 Coulomb attenuation parameter = 0.2 bohr**(-1)
 An unrestricted hybrid HF-DFT SCF calculation will be
 performed using Relaxed Constraint Minimization + Pulay DIIS
 Exchange:     0.2220 Hartree-Fock + 1.0000 wB97X-D + LR-HF
 Correlation:  1.0000 wB97X-D
 Using Euler-Maclaurin-Lebedev (75,302) quadrature formula
 Dispersion:   Grimme D
 SCF converges when DIIS error is below 1.0E-04
 using 6 threads for integral computing
 -------------------------------------------------------
 OpenMP Integral computing Module                
 Release: version 1.0, May 2013, Q-Chem Inc. Pittsburgh 
 -------------------------------------------------------
 using 6 threads for integral computing
 -------------------------------------------------------
 OpenMP Integral computing Module                
 Release: version 1.0, May 2013, Q-Chem Inc. Pittsburgh 
 -------------------------------------------------------
 ---------------------------------------
  Cycle       Energy         DIIS Error
 ---------------------------------------
    1    -410.8040392741      8.44E-02
    2    -409.6513274730      1.90E-02
    3    -409.7556719917      3.79E-03
    4    -409.9013477223      3.82E-03
    5    -409.9056214385      6.27E-04 Done RCA. Switching to DIIS
    6    -409.9118861238      5.16E-04
    7    -409.9123290685      1.38E-04
    8    -409.9124406167      1.03E-04
    9    -409.9125134635      3.92E-05 Convergence criterion met
 ---------------------------------------
 <S^2> = 2.0182
 SCF time:  CPU 15.31 s  wall 2.57 s
 SCF   energy in the small basis set = -409.91251346
 Total energy in the small basis set = -409.91251346
 ----------------------------------------------------
  Cycle       Energy    
 ----------------------------------------------------
    1     -41.6775623705     -4.17E+01
 Long-range K will be added via erf
 Coulomb attenuation parameter = 0.2 bohr**(-1)
 An unrestricted hybrid HF-DFT SCF calculation will be
 performed using Relaxed Constraint Minimization + Pulay DIIS
 Exchange:     0.2220 Hartree-Fock + 1.0000 wB97X-D + LR-HF
 Correlation:  1.0000 wB97X-D
 Using Euler-Maclaurin-Lebedev (75,302) quadrature formula
 Dispersion:   Grimme D
 SCF converges when DIIS error is below 1.0E-05
 Basis2 calculation detected. Using small basis as guess for larger.
 SCFMinFind is unable to tell whether the solution found is close.
 Resetting ReadMinima to 0 and attempting to follow guess.
 SCFMinFind following SCF Guess.
 using 6 threads for integral computing
 -------------------------------------------------------
 OpenMP Integral computing Module                
 Release: version 1.0, May 2013, Q-Chem Inc. Pittsburgh 
 -------------------------------------------------------
 using 6 threads for integral computing
 -------------------------------------------------------
 OpenMP Integral computing Module                
 Release: version 1.0, May 2013, Q-Chem Inc. Pittsburgh 
 -------------------------------------------------------
 ---------------------------------------
  Cycle       Energy         DIIS Error
 ---------------------------------------
    1    -410.0035458928      8.01E-03
    2    -410.0138733507      4.04E-03
    3    -410.0348033026      9.34E-04 Done RCA. Switching to DIIS
    4    -410.0630373500      1.02E-03
    5    -410.0664166312      2.28E-04
    6    -410.0666958190      4.76E-05
    7    -410.0667828108      2.95E-05
    8    -410.0668012547      2.00E-05
    9    -410.0668154462      7.10E-06 Convergence criterion met
 ---------------------------------------
 <S^2> = 2.0197
 SCF time:  CPU 53.27 s  wall 8.91 s
 SCF   energy in the final basis set = -410.06681545
 Total energy in the final basis set = -410.06681545
 
 --------------------------------------------------------------
 
                    Orbital Energies (a.u.)
 --------------------------------------------------------------
 
 Alpha MOs
 -- Occupied --
-19.3840 -19.3791 -19.3791 -19.3785 -14.7802 -14.6030  -1.4320  -1.3521
 -1.2847  -1.1512  -0.8408  -0.7804  -0.7228  -0.7127  -0.6896  -0.6488
 -0.6249  -0.6169  -0.4988  -0.4873  -0.4697  -0.4638  -0.4298  -0.3238
 -- Virtual --
 -0.0402   0.0191   0.0403   0.0910   0.1208   0.1358   0.1412   0.1684
  0.1768   0.1834   0.2205   0.2358   0.2444   0.2553   0.2741   0.2795
  0.2961   0.3042   0.3203   0.3431   0.3533   0.3633   0.3687   0.3879
  0.4025   0.4205   0.4521   0.4575   0.5034   0.5592   0.7449   0.7627
  0.8085   0.8279   0.8562   0.8757   0.8985   0.9555   0.9766   1.0099
  1.0288   1.0375   1.0548   1.0676   1.0843   1.0885   1.1156   1.1393
  1.1435   1.1603   1.1703   1.2042   1.2258   1.2328   1.2509   1.3103
  1.4312   1.4464   1.4716   1.5123   1.5519   1.5593   1.5962   1.6059
  1.6483   1.6746   1.7020   1.7748   1.8142   1.8853   1.8973   1.9666
  1.9882   2.0386   2.1649   2.2781   2.3154   2.4055   2.4499   2.4876
  2.5030   2.5436   2.6627   2.7377   3.4951   3.5505   3.5552   3.5864
  3.5962   3.6398   3.6542   3.6697   3.7205   3.7771   3.8098   3.8581
  3.9143   3.9400   4.0001   4.0400   4.0503   4.2890   4.4474   4.4602
  4.4694   4.6164   4.6685   4.6907   4.7043   4.7300   4.7646   4.7923
  4.8539   4.9328   4.9894   4.9997   5.0238   5.0260   5.0324   5.0345
  5.0592   5.0696   5.0944   5.1018   5.1127   5.1378   5.1607   5.1860
  5.2039   5.2748   5.2849   5.3089   5.3544   5.4087   5.4458   5.4779
  5.5002   5.5247   5.5516   5.5869   5.6515   5.7191   5.9221   6.0705
  6.2785   6.3307   6.5604   6.6601   6.6797   6.7377   6.7415   6.7537
  6.7777   6.7840   6.8120   6.8567   6.9489   7.0347   7.0691   7.0965
  7.1695   7.1763   7.2062   7.2522   7.3007   7.3194   7.4022   7.4771
  7.5666   7.6490   7.7108   7.7232   7.8939   8.5971  35.9288  36.0314
 49.9922  50.1772  50.1974  50.2661
 
 Beta MOs
 -- Occupied --
-19.3796 -19.3767 -19.3663 -19.3652 -14.7796 -14.5859  -1.4290  -1.3146
 -1.2829  -1.1109  -0.8055  -0.7506  -0.7113  -0.7019  -0.6867  -0.5940
 -0.5674  -0.5474  -0.4869  -0.4769  -0.4522  -0.4476
 -- Virtual --
 -0.1279  -0.0383  -0.0069   0.0578   0.0845   0.0985   0.1255   0.1394
  0.1454   0.1702   0.1800   0.1884   0.2220   0.2374   0.2481   0.2579
  0.2756   0.2834   0.2986   0.3096   0.3238   0.3444   0.3554   0.3653
  0.3705   0.3928   0.4115   0.4255   0.4556   0.4621   0.5220   0.5634
  0.7525   0.7738   0.8225   0.8380   0.8715   0.8871   0.9013   0.9659
  0.9836   1.0135   1.0410   1.0445   1.0640   1.0823   1.0983   1.1099
  1.1212   1.1495   1.1582   1.1638   1.1911   1.2133   1.2382   1.2428
  1.2644   1.3235   1.4477   1.4614   1.4747   1.5143   1.5566   1.5635
  1.6087   1.6288   1.6719   1.6920   1.7273   1.7858   1.8185   1.8905
  1.9058   1.9875   2.0026   2.0405   2.1885   2.2944   2.3284   2.4182
  2.4604   2.4929   2.5118   2.5554   2.6670   2.7414   3.5098   3.5652
  3.5861   3.6010   3.6113   3.6481   3.6568   3.6975   3.7287   3.8104
  3.8697   3.8838   3.9261   3.9584   4.0307   4.0407   4.0720   4.2910
  4.4497   4.4629   4.4765   4.6481   4.6913   4.7138   4.7406   4.7447
  4.7968   4.8362   4.8779   4.9797   5.0010   5.0125   5.0291   5.0306
  5.0576   5.0728   5.0744   5.0794   5.1062   5.1123   5.1403   5.1603
  5.1855   5.2170   5.2333   5.2947   5.2981   5.3221   5.3756   5.4206
  5.4575   5.4937   5.5084   5.5521   5.5675   5.5978   5.6832   5.7252
  5.9392   6.1176   6.2911   6.3315   6.5663   6.7006   6.7144   6.7442
  6.7816   6.7849   6.8033   6.8185   6.8211   6.8599   6.9798   7.0580
  7.0736   7.1222   7.1714   7.2144   7.2369   7.2646   7.3038   7.3274
  7.4176   7.5015   7.5940   7.6540   7.7376   7.7625   7.8983   8.5988
 35.9495  36.0323  50.0073  50.1928  50.1994  50.2667
 --------------------------------------------------------------
 
 -----------------------------------------------------------------
                    Cartesian Multipole Moments
 -----------------------------------------------------------------
    Charge (ESU x 10^10)
                -0.0000
    Dipole Moment (Debye)
         X       0.5108      Y       0.2795      Z       0.0538
       Tot       0.5847
    Quadrupole Moments (Debye-Ang)
        XX     -32.2296     XY      -0.0646     YY     -31.8527
        XZ       0.4070     YZ       1.7462     ZZ     -32.4872
    Octopole Moments (Debye-Ang^2)
       XXX     -31.8780    XXY     -11.3411    XYY      -9.8068
       YYY     -36.6372    XXZ     -93.5925    XYZ      -1.6982
       YYZ     -88.3701    XZZ     -10.7021    YZZ      -2.5541
       ZZZ    -279.1854
    Hexadecapole Moments (Debye-Ang^3)
      XXXX    -140.9649   XXXY     -59.5280   XXYY     -82.1028
      XYYY     -61.1142   YYYY    -358.0525   XXXZ     -87.2872
      XXYZ     -10.5645   XYYZ     -24.8833   YYYZ     -27.6948
      XXZZ    -316.1339   XYZZ     -29.0432   YYZZ    -328.8490
      XZZZ     -83.7880   YZZZ      14.3283   ZZZZ   -1731.9511
 -----------------------------------------------------------------
Archival summary:
1\1\centos77-c5\SP\ProcedureUnspecified\BasisUnspecified\42(3)\shihchen\MonJul1315:44:162020MonJul1315:44:162020\0\\#,ProcedureUnspecified,BasisUnspecified,\\0,3\N\O,1,1.19261\O,1,1.19335,2,146.272\O,1,1.56177,2,112.884,3,-179.129,0\N,4,1.66664,1,109.346,2,2.32263,0\O,5,1.17003,4,119.323,1,95.6949,0\\\@

 Total job time:  13.84s(wall), 73.06s(cpu) 
 Mon Jul 13 15:44:16 2020

        *************************************************************
        *                                                           *
        *  Thank you very much for using Q-Chem.  Have a nice day.  *
        *                                                           *
        *************************************************************


