                  Welcome to Q-Chem
     A Quantum Leap Into The Future Of Chemistry


 Q-Chem 5.3 (devel), Q-Chem, Inc., Pleasanton, CA (2020)

 Yihan Shao,  Zhengting Gan,  E. Epifanovsky,  A. T. B. Gilbert,  M. Wormit,  
 J. Kussmann,  A. W. Lange,  A. Behn,  Jia Deng,  Xintian Feng,  D. Ghosh,  
 M. Goldey,  P. R. Horn,  L. D. Jacobson,  I. Kaliman,  T. Kus,  A. Landau,  
 Jie Liu,  E. I. Proynov,  R. M. Richard,  R. P. Steele,  E. J. Sundstrom,  
 H. L. Woodcock III,  P. M. Zimmerman,  D. Zuev,  B. Alam,  B. Albrecht,  
 E. Alguire,  S. A. Baeppler,  D. Barton,  Z. Benda,  Y. A. Bernard,  
 E. J. Berquist,  K. B. Bravaya,  H. Burton,  K. Carter-Fenk,  D. Casanova,  
 Chun-Min Chang,  Yunqing Chen,  A. Chien,  K. D. Closser,  M. P. Coons,  
 S. Coriani,  S. Dasgupta,  A. L. Dempwolff,  M. Diedenhofen,  Hainam Do,  
 R. G. Edgar,  Po-Tung Fang,  S. Faraji,  S. Fatehi,  Qingguo Feng,  
 J. Fosso-Tande,  J. Gayvert,  Qinghui Ge,  A. Ghysels,  G. Gidofalvi,  
 J. Gomes,  J. Gonthier,  A. Gunina,  D. Hait,  M. W. D. Hanson-Heine,  
 P. H. P. Harbach,  A. W. Hauser,  M. F. Herbst,  J. E. Herr,  
 E. G. Hohenstein,  Z. C. Holden,  Kerwin Hui,  B. C. Huynh,  T.-C. Jagau,  
 Hyunjun Ji,  B. Kaduk,  K. Khistyaev,  Jaehoon Kim,  P. Klunzinger,  K. Koh,  
 D. Kosenkov,  L. Koulias,  T. Kowalczyk,  C. M. Krauter,  A. Kunitsa,  
 Ka Un Lao,  A. Laurent,  K. V. Lawler,  Joonho Lee,  D. Lefrancois,  
 S. Lehtola,  D. S. Levine,  Yi-Pei Li,  You-Sheng Lin,  Fenglai Liu,  
 Kuan-Yu Liu,  E. Livshits,  M. Loipersberger,  A. Luenser,  P. Manohar,  
 E. Mansoor,  S. F. Manzer,  Shan-Ping Mao,  Yuezhi Mao,  N. Mardirossian,  
 A. V. Marenich,  T. Markovich,  L. A. Martinez-Martinez,  S. A. Maurer,  
 N. J. Mayhall,  S. C. McKenzie,  J.-M. Mewes,  P. Morgante,  A. F. Morrison,  
 J. W. Mullinax,  K. Nanda,  T. S. Nguyen-Beck,  R. Olivares-Amaya,  
 K. J. Oosterbaan,  J. A. Parkhill,  S. K. Paul,  F. Pavosevic,  Zheng Pei,  
 T. M. Perrine,  F. Plasser,  P. Pokhilko,  S. Prager,  A. Prociuk,  
 E. Ramos,  B. Rana,  D. R. Rehn,  F. Rob,  M. Scheurer,  M. Schneider,  
 N. Sergueev,  S. M. Sharada,  S. Sharma,  D. W. Small,  T. Stauch,  
 C. J. Stein,  T. Stein,  Yu-Chuan Su,  S. P. Veccham,  Zhen Tao,  
 A. J. W. Thom,  A. Tkatchenko,  T. Tsuchimochi,  N. M. Tubman,  L. Vogt,  
 M. L. Vidal,  O. Vydrov,  M. A. Watson,  J. Wenzel,  M. de Wergifosse,  
 T. A. Wesolowski,  A. White,  J. Witte,  A. Yamada,  Jun Yang,  K. Yao,  
 S. Yeganeh,  S. R. Yost,  Zhi-Qiang You,  A. Zech,  Igor Ying Zhang,  
 Xing Zhang,  Yan Zhao,  Ying Zhu,  B. R. Brooks,  G. K. L. Chan,  
 C. J. Cramer,  M. S. Gordon,  W. J. Hehre,  A. Klamt,  M. W. Schmidt,  
 C. D. Sherrill,  D. G. Truhlar,  A. Aspuru-Guzik,  R. Baer,  A. T. Bell,  
 N. A. Besley,  Jeng-Da Chai,  A. E. DePrince, III,  R. A. DiStasio Jr.,  
 A. Dreuw,  B. D. Dunietz,  T. R. Furlani,  Chao-Ping Hsu,  Yousung Jung,  
 Jing Kong,  D. S. Lambrecht,  WanZhen Liang,  C. Ochsenfeld,  
 V. A. Rassolov,  L. V. Slipchenko,  J. E. Subotnik,  T. Van Voorhis,  
 J. M. Herbert,  A. I. Krylov,  P. M. W. Gill,  M. Head-Gordon

 Contributors to earlier versions of Q-Chem not listed above: 
 R. D. Adamson,  B. Austin,  J. Baker,  G. J. O. Beran,  K. Brandhorst,  
 S. T. Brown,  E. F. C. Byrd,  A. K. Chakraborty,  C.-L. Cheng,  
 Siu Hung Chien,  D. M. Chipman,  D. L. Crittenden,  H. Dachsel,  
 R. J. Doerksen,  A. D. Dutoi,  L. Fusti-Molnar,  W. A. Goddard III,  
 A. Golubeva-Zadorozhnaya,  S. R. Gwaltney,  G. Hawkins,  A. Heyden,  
 S. Hirata,  G. Kedziora,  F. J. Keil,  C. Kelley,  Jihan Kim,  R. A. King,  
 R. Z. Khaliullin,  P. P. Korambath,  W. Kurlancheek,  A. M. Lee,  M. S. Lee,  
 S. V. Levchenko,  Ching Yeh Lin,  D. Liotard,  R. C. Lochan,  I. Lotan,  
 P. E. Maslen,  N. Nair,  D. P. O'Neill,  D. Neuhauser,  E. Neuscamman,  
 C. M. Oana,  R. Olson,  B. Peters,  R. Peverati,  P. A. Pieniazek,  
 Y. M. Rhee,  J. Ritchie,  M. A. Rohrdanz,  E. Rosta,  N. J. Russ,  
 H. F. Schaefer III,  N. E. Schultz,  N. Shenvi,  A. C. Simmonett,  A. Sodt,  
 D. Stuck,  K. S. Thanthiriwatte,  V. Vanovschi,  Tao Wang,  A. Warshel,  
 C. F. Williams,  Q. Wu,  X. Xu,  W. Zhang

 Please cite Q-Chem as follows:
 Y. Shao et al., Mol. Phys. 113, 184-215 (2015)
 DOI: 10.1080/00268976.2014.952696

 Q-Chem 5.3.0 for Intel X86 EM64T Linux

 Parts of Q-Chem use Armadillo 9.800.1 (Horizon Scraper).
 http://arma.sourceforge.net/

 Q-Chem begins on Mon Jul 13 15:49:17 2020  

Host: centos77-c5
0

     Scratch files written to /tmp/29025.centos77-h1/qchem34322//
Processing $rem in /opt/qchem-5.3.0-intel2020u1//config/preferences:
Processing $rem in /home/shihchengli/.qchemrc:

Checking the input file for inconsistencies... 	...done.

--------------------------------------------------------------
User input:
--------------------------------------------------------------
$rem
   JOBTYPE  sp
   EXCHANGE   omegaB97X-D
   BASIS   6-311+G(2df,2pd)
   UNRESTRICTED   True
   max_scf_cycles   250
   geom_opt_max_cycles   1500
   basis2 6-31G*
   scf_algorithm rca_diis
   SYM_IGNORE  TRUE
   print_input   true
   geom_opt_dmax   80
   pop_mulliken false
   XC_GRID 000075000302
$end

$molecule
0 3
N       0.6897937793     1.1963825698     2.4811410625
O       0.3554733358     2.1902599234     1.8857420300
O       1.6141926307     0.9784567687     3.1780555932
N       0.0898418899     -1.1466556366     3.0609151030
O       -0.5392015623     -1.3170796338     4.2666306821
O       -0.2651089433     0.1936251183     2.2278154192
$end
--------------------------------------------------------------
 ----------------------------------------------------------------
             Standard Nuclear Orientation (Angstroms)
    I     Atom           X                Y                Z
 ----------------------------------------------------------------
    1      N       0.6897937793     1.1963825698     2.4811410625
    2      O       0.3554733358     2.1902599234     1.8857420300
    3      O       1.6141926307     0.9784567687     3.1780555932
    4      N       0.0898418899    -1.1466556366     3.0609151030
    5      O      -0.5392015623    -1.3170796338     4.2666306821
    6      O      -0.2651089433     0.1936251183     2.2278154192
 ----------------------------------------------------------------
 Nuclear Repulsion Energy =         227.64522988 hartrees
 There are       24 alpha and       22 beta electrons
 Requested basis set is 6-311+G(2df,2pd)
 There are 48 shells and 204 basis functions

 Total QAlloc Memory Limit   2000 MB
 Mega-Array Size       188 MB
 MEM_STATIC part       192 MB

                       Distance Matrix (Angstroms)
             N (  1)   O (  2)   O (  3)   N (  4)   O (  5)
   O (  2)  1.205845
   O (  3)  1.178005  2.173227
   N (  4)  2.487149  3.547759  2.617913
   O (  5)  3.319020  4.332494  3.330404  1.370580
   O (  6)  1.407670  2.118652  2.247374  1.617528  2.552278
 
 A cutoff of  1.0D-09 yielded   1024 shell pairs
 There are     19100 function pairs (     25041 Cartesian)
 Smallest overlap matrix eigenvalue = 7.28E-04

 Scale SEOQF with 1.000000e-01/1.000000e-01/1.000000e-01

 Standard Electronic Orientation quadrupole field applied
 Nucleus-field energy     =    -0.0000000365 hartrees
 Requested basis set is 6-31G(d)
 There are 24 shells and 84 basis functions
 A cutoff of  1.0D-09 yielded    269 shell pairs
 There are      3538 function pairs (      4066 Cartesian)
 Smallest overlap matrix eigenvalue = 4.87E-03
 Guess from superposition of atomic densities
 Warning:  Energy on first SCF cycle will be non-variational
 SAD guess density has 46.000000 electrons
 Long-range K will be added via erf
 Coulomb attenuation parameter = 0.2 bohr**(-1)
 An unrestricted hybrid HF-DFT SCF calculation will be
 performed using Relaxed Constraint Minimization + Pulay DIIS
 Exchange:     0.2220 Hartree-Fock + 1.0000 wB97X-D + LR-HF
 Correlation:  1.0000 wB97X-D
 Using Euler-Maclaurin-Lebedev (75,302) quadrature formula
 Dispersion:   Grimme D
 SCF converges when DIIS error is below 1.0E-04
 using 6 threads for integral computing
 -------------------------------------------------------
 OpenMP Integral computing Module                
 Release: version 1.0, May 2013, Q-Chem Inc. Pittsburgh 
 -------------------------------------------------------
 using 6 threads for integral computing
 -------------------------------------------------------
 OpenMP Integral computing Module                
 Release: version 1.0, May 2013, Q-Chem Inc. Pittsburgh 
 -------------------------------------------------------
 ---------------------------------------
  Cycle       Energy         DIIS Error
 ---------------------------------------
    1    -410.6350838896      8.07E-02
    2    -409.5750519981      2.07E-02
    3    -409.6859469415      6.48E-03
    4    -409.8527015039      7.14E-03
    5    -409.8692118642      6.21E-04 Done RCA. Switching to DIIS
    6    -409.8922680961      3.78E-04
    7    -409.8929346258      3.57E-04
    8    -409.8933091696      2.07E-04
    9    -409.8937312236      1.38E-04
   10    -409.8939906358      7.76E-05 Convergence criterion met
 ---------------------------------------
 <S^2> = 2.0233
 SCF time:  CPU 16.82 s  wall 2.82 s
 SCF   energy in the small basis set = -409.89399064
 Total energy in the small basis set = -409.89399064
 ----------------------------------------------------
  Cycle       Energy    
 ----------------------------------------------------
    1     -41.6130784327     -4.16E+01
 Long-range K will be added via erf
 Coulomb attenuation parameter = 0.2 bohr**(-1)
 An unrestricted hybrid HF-DFT SCF calculation will be
 performed using Relaxed Constraint Minimization + Pulay DIIS
 Exchange:     0.2220 Hartree-Fock + 1.0000 wB97X-D + LR-HF
 Correlation:  1.0000 wB97X-D
 Using Euler-Maclaurin-Lebedev (75,302) quadrature formula
 Dispersion:   Grimme D
 SCF converges when DIIS error is below 1.0E-05
 Basis2 calculation detected. Using small basis as guess for larger.
 SCFMinFind is unable to tell whether the solution found is close.
 Resetting ReadMinima to 0 and attempting to follow guess.
 SCFMinFind following SCF Guess.
 using 6 threads for integral computing
 -------------------------------------------------------
 OpenMP Integral computing Module                
 Release: version 1.0, May 2013, Q-Chem Inc. Pittsburgh 
 -------------------------------------------------------
 using 6 threads for integral computing
 -------------------------------------------------------
 OpenMP Integral computing Module                
 Release: version 1.0, May 2013, Q-Chem Inc. Pittsburgh 
 -------------------------------------------------------
 ---------------------------------------
  Cycle       Energy         DIIS Error
 ---------------------------------------
    1    -409.9585420249      8.18E-03
    2    -409.9507907051      5.18E-03
    3    -409.9818730848      1.78E-03
    4    -410.0309284271      1.28E-03
    5    -410.0367425146      5.02E-04 Done RCA. Switching to DIIS
    6    -410.0427424732      7.81E-04
    7    -410.0452443083      9.38E-05
    8    -410.0456017870      5.02E-05
    9    -410.0457524625      2.79E-05
   10    -410.0458492572      2.07E-05
   11    -410.0458847623      1.36E-05
   12    -410.0458954698      9.13E-06 Convergence criterion met
 ---------------------------------------
 <S^2> = 2.0247
 SCF time:  CPU 74.22 s  wall 12.40 s
 SCF   energy in the final basis set = -410.04589547
 Total energy in the final basis set = -410.04589547
 
 --------------------------------------------------------------
 
                    Orbital Energies (a.u.)
 --------------------------------------------------------------
 
 Alpha MOs
 -- Occupied --
-19.4241 -19.4219 -19.3536 -19.3466 -14.7777 -14.6447  -1.4459  -1.2709
 -1.2585  -1.2048  -0.9090  -0.7842  -0.7206  -0.7184  -0.6832  -0.6344
 -0.5997  -0.5916  -0.5107  -0.4965  -0.4731  -0.4633  -0.4450  -0.3993
 -- Virtual --
 -0.0306  -0.0145   0.0764   0.1100   0.1263   0.1359   0.1373   0.1662
  0.1808   0.1822   0.2107   0.2270   0.2402   0.2483   0.2656   0.2713
  0.2862   0.3013   0.3261   0.3401   0.3426   0.3540   0.3587   0.3675
  0.3945   0.4269   0.4430   0.4527   0.4638   0.5192   0.7399   0.7596
  0.8022   0.8303   0.8519   0.8812   0.9271   0.9504   0.9590   1.0109
  1.0196   1.0279   1.0388   1.0656   1.0753   1.0836   1.1152   1.1241
  1.1328   1.1515   1.1557   1.1741   1.2160   1.2344   1.2530   1.3296
  1.4459   1.4706   1.5139   1.5387   1.5550   1.5811   1.5862   1.6011
  1.6219   1.6417   1.6998   1.7747   1.7859   1.8160   1.9001   1.9236
  1.9674   2.0123   2.1429   2.1882   2.2897   2.3500   2.3809   2.3997
  2.5314   2.5496   2.6844   2.7970   3.4887   3.5352   3.5690   3.6048
  3.6251   3.6606   3.6791   3.6947   3.7099   3.7231   3.7954   3.8120
  3.8224   3.8961   4.0058   4.0601   4.0783   4.1545   4.4203   4.4526
  4.4899   4.5124   4.6418   4.6790   4.7108   4.7159   4.7898   4.8367
  4.8665   4.9280   4.9852   4.9916   5.0069   5.0132   5.0171   5.0388
  5.0424   5.0479   5.0726   5.0892   5.1130   5.1256   5.1398   5.1638
  5.1835   5.2045   5.2317   5.3286   5.3569   5.3993   5.4147   5.4316
  5.4777   5.5503   5.6399   5.6620   5.8116   5.8850   5.8918   5.9654
  5.9935   6.1827   6.3346   6.5176   6.6802   6.6938   6.6943   6.7564
  6.7815   6.8104   6.8305   6.8766   6.8822   6.9342   6.9909   7.0558
  7.0947   7.1043   7.1445   7.1714   7.2666   7.3145   7.3699   7.5271
  7.5692   7.6696   7.8311   7.8445   7.9052   8.2355  35.4400  36.1071
 49.9027  49.9914  50.2141  50.2650
 
 Beta MOs
 -- Occupied --
-19.4166 -19.3979 -19.3538 -19.3451 -14.7774 -14.6272  -1.4428  -1.2570
 -1.2267  -1.1707  -0.8587  -0.7577  -0.7191  -0.7075  -0.6750  -0.5910
 -0.5464  -0.5039  -0.4777  -0.4756  -0.4604  -0.4448
 -- Virtual --
 -0.1703  -0.0634  -0.0266   0.0279   0.0821   0.1167   0.1359   0.1384
  0.1397   0.1737   0.1817   0.1853   0.2228   0.2391   0.2476   0.2498
  0.2661   0.2748   0.2901   0.3051   0.3271   0.3406   0.3439   0.3560
  0.3597   0.3686   0.3964   0.4287   0.4448   0.4551   0.4671   0.5226
  0.7487   0.7675   0.8108   0.8471   0.8726   0.8859   0.9316   0.9562
  0.9723   1.0248   1.0313   1.0426   1.0522   1.0822   1.0851   1.0878
  1.1253   1.1342   1.1498   1.1573   1.1682   1.1832   1.2257   1.2417
  1.2627   1.3445   1.4655   1.4853   1.5199   1.5467   1.5674   1.5895
  1.6050   1.6231   1.6439   1.6626   1.7050   1.7848   1.7941   1.8284
  1.9071   1.9307   1.9751   2.0325   2.1592   2.1934   2.3068   2.3556
  2.3878   2.4173   2.5329   2.5521   2.6899   2.7997   3.5142   3.5687
  3.5839   3.6227   3.6469   3.6628   3.6880   3.7173   3.7231   3.7514
  3.8232   3.8430   3.8846   3.9113   4.0063   4.0702   4.0899   4.1741
  4.4227   4.4548   4.4926   4.5139   4.6460   4.7015   4.7215   4.7448
  4.8458   4.8868   4.9113   4.9791   5.0061   5.0170   5.0427   5.0467
  5.0523   5.0616   5.0646   5.0725   5.0897   5.1032   5.1195   5.1348
  5.1573   5.1830   5.1990   5.2198   5.2653   5.3437   5.3866   5.4021
  5.4254   5.4450   5.4864   5.5523   5.6657   5.6748   5.8187   5.8884
  5.9247   5.9892   6.0135   6.2091   6.3447   6.5189   6.6935   6.7589
  6.7753   6.7855   6.7883   6.8210   6.8443   6.8777   6.8910   6.9608
  7.0000   7.0901   7.1121   7.1394   7.1676   7.1878   7.2717   7.3259
  7.3794   7.5649   7.5746   7.6870   7.8362   7.8556   7.9103   8.2372
 35.4631  36.1076  49.9262  50.0005  50.2156  50.2648
 --------------------------------------------------------------
 
 -----------------------------------------------------------------
                    Cartesian Multipole Moments
 -----------------------------------------------------------------
    Charge (ESU x 10^10)
                -0.0000
    Dipole Moment (Debye)
         X      -0.2297      Y      -0.7336      Z       0.0685
       Tot       0.7717
    Quadrupole Moments (Debye-Ang)
        XX     -33.2176     XY      -0.8113     YY     -34.5076
        XZ      -1.9870     YZ      -0.5309     ZZ     -32.1559
    Octopole Moments (Debye-Ang^2)
       XXX     -33.5196    XXY     -12.3274    XYY     -11.5055
       YYY     -40.4156    XXZ     -96.3893    XYZ      -3.4541
       YYZ     -94.7215    XZZ     -19.0862    YZZ      -8.4640
       ZZZ    -276.4439
    Hexadecapole Moments (Debye-Ang^3)
      XXXX    -141.9534   XXXY     -61.9530   XXYY     -84.7609
      XYYY     -64.6059   YYYY    -369.9234   XXXZ     -88.2353
      XXYZ     -12.7994   XYYZ     -28.4192   YYYZ     -35.9875
      XXZZ    -324.1422   XYZZ     -32.6711   YYZZ    -344.9039
      XZZZ    -111.7665   YZZZ      -3.9400   ZZZZ   -1716.8730
 -----------------------------------------------------------------
Archival summary:
1\1\centos77-c5\SP\ProcedureUnspecified\BasisUnspecified\42(3)\shihchen\MonJul1315:49:352020MonJul1315:49:352020\0\\#,ProcedureUnspecified,BasisUnspecified,\\0,3\N\O,1,1.178\O,1,1.20585,2,131.464\O,1,1.40767,2,120.464,3,-179.78,0\N,4,1.61753,1,110.408,2,2.64196,0\O,5,1.37058,4,117.091,1,95.6949,0\\\@

 Total job time:  17.59s(wall), 95.38s(cpu) 
 Mon Jul 13 15:49:35 2020

        *************************************************************
        *                                                           *
        *  Thank you very much for using Q-Chem.  Have a nice day.  *
        *                                                           *
        *************************************************************


