                  Welcome to Q-Chem
     A Quantum Leap Into The Future Of Chemistry


 Q-Chem 5.3 (devel), Q-Chem, Inc., Pleasanton, CA (2020)

 Yihan Shao,  Zhengting Gan,  E. Epifanovsky,  A. T. B. Gilbert,  M. Wormit,  
 J. Kussmann,  A. W. Lange,  A. Behn,  Jia Deng,  Xintian Feng,  D. Ghosh,  
 M. Goldey,  P. R. Horn,  L. D. Jacobson,  I. Kaliman,  T. Kus,  A. Landau,  
 Jie Liu,  E. I. Proynov,  R. M. Richard,  R. P. Steele,  E. J. Sundstrom,  
 H. L. Woodcock III,  P. M. Zimmerman,  D. Zuev,  B. Alam,  B. Albrecht,  
 E. Alguire,  S. A. Baeppler,  D. Barton,  Z. Benda,  Y. A. Bernard,  
 E. J. Berquist,  K. B. Bravaya,  H. Burton,  K. Carter-Fenk,  D. Casanova,  
 Chun-Min Chang,  Yunqing Chen,  A. Chien,  K. D. Closser,  M. P. Coons,  
 S. Coriani,  S. Dasgupta,  A. L. Dempwolff,  M. Diedenhofen,  Hainam Do,  
 R. G. Edgar,  Po-Tung Fang,  S. Faraji,  S. Fatehi,  Qingguo Feng,  
 J. Fosso-Tande,  J. Gayvert,  Qinghui Ge,  A. Ghysels,  G. Gidofalvi,  
 J. Gomes,  J. Gonthier,  A. Gunina,  D. Hait,  M. W. D. Hanson-Heine,  
 P. H. P. Harbach,  A. W. Hauser,  M. F. Herbst,  J. E. Herr,  
 E. G. Hohenstein,  Z. C. Holden,  Kerwin Hui,  B. C. Huynh,  T.-C. Jagau,  
 Hyunjun Ji,  B. Kaduk,  K. Khistyaev,  Jaehoon Kim,  P. Klunzinger,  K. Koh,  
 D. Kosenkov,  L. Koulias,  T. Kowalczyk,  C. M. Krauter,  A. Kunitsa,  
 Ka Un Lao,  A. Laurent,  K. V. Lawler,  Joonho Lee,  D. Lefrancois,  
 S. Lehtola,  D. S. Levine,  Yi-Pei Li,  You-Sheng Lin,  Fenglai Liu,  
 Kuan-Yu Liu,  E. Livshits,  M. Loipersberger,  A. Luenser,  P. Manohar,  
 E. Mansoor,  S. F. Manzer,  Shan-Ping Mao,  Yuezhi Mao,  N. Mardirossian,  
 A. V. Marenich,  T. Markovich,  L. A. Martinez-Martinez,  S. A. Maurer,  
 N. J. Mayhall,  S. C. McKenzie,  J.-M. Mewes,  P. Morgante,  A. F. Morrison,  
 J. W. Mullinax,  K. Nanda,  T. S. Nguyen-Beck,  R. Olivares-Amaya,  
 K. J. Oosterbaan,  J. A. Parkhill,  S. K. Paul,  F. Pavosevic,  Zheng Pei,  
 T. M. Perrine,  F. Plasser,  P. Pokhilko,  S. Prager,  A. Prociuk,  
 E. Ramos,  B. Rana,  D. R. Rehn,  F. Rob,  M. Scheurer,  M. Schneider,  
 N. Sergueev,  S. M. Sharada,  S. Sharma,  D. W. Small,  T. Stauch,  
 C. J. Stein,  T. Stein,  Yu-Chuan Su,  S. P. Veccham,  Zhen Tao,  
 A. J. W. Thom,  A. Tkatchenko,  T. Tsuchimochi,  N. M. Tubman,  L. Vogt,  
 M. L. Vidal,  O. Vydrov,  M. A. Watson,  J. Wenzel,  M. de Wergifosse,  
 T. A. Wesolowski,  A. White,  J. Witte,  A. Yamada,  Jun Yang,  K. Yao,  
 S. Yeganeh,  S. R. Yost,  Zhi-Qiang You,  A. Zech,  Igor Ying Zhang,  
 Xing Zhang,  Yan Zhao,  Ying Zhu,  B. R. Brooks,  G. K. L. Chan,  
 C. J. Cramer,  M. S. Gordon,  W. J. Hehre,  A. Klamt,  M. W. Schmidt,  
 C. D. Sherrill,  D. G. Truhlar,  A. Aspuru-Guzik,  R. Baer,  A. T. Bell,  
 N. A. Besley,  Jeng-Da Chai,  A. E. DePrince, III,  R. A. DiStasio Jr.,  
 A. Dreuw,  B. D. Dunietz,  T. R. Furlani,  Chao-Ping Hsu,  Yousung Jung,  
 Jing Kong,  D. S. Lambrecht,  WanZhen Liang,  C. Ochsenfeld,  
 V. A. Rassolov,  L. V. Slipchenko,  J. E. Subotnik,  T. Van Voorhis,  
 J. M. Herbert,  A. I. Krylov,  P. M. W. Gill,  M. Head-Gordon

 Contributors to earlier versions of Q-Chem not listed above: 
 R. D. Adamson,  B. Austin,  J. Baker,  G. J. O. Beran,  K. Brandhorst,  
 S. T. Brown,  E. F. C. Byrd,  A. K. Chakraborty,  C.-L. Cheng,  
 Siu Hung Chien,  D. M. Chipman,  D. L. Crittenden,  H. Dachsel,  
 R. J. Doerksen,  A. D. Dutoi,  L. Fusti-Molnar,  W. A. Goddard III,  
 A. Golubeva-Zadorozhnaya,  S. R. Gwaltney,  G. Hawkins,  A. Heyden,  
 S. Hirata,  G. Kedziora,  F. J. Keil,  C. Kelley,  Jihan Kim,  R. A. King,  
 R. Z. Khaliullin,  P. P. Korambath,  W. Kurlancheek,  A. M. Lee,  M. S. Lee,  
 S. V. Levchenko,  Ching Yeh Lin,  D. Liotard,  R. C. Lochan,  I. Lotan,  
 P. E. Maslen,  N. Nair,  D. P. O'Neill,  D. Neuhauser,  E. Neuscamman,  
 C. M. Oana,  R. Olson,  B. Peters,  R. Peverati,  P. A. Pieniazek,  
 Y. M. Rhee,  J. Ritchie,  M. A. Rohrdanz,  E. Rosta,  N. J. Russ,  
 H. F. Schaefer III,  N. E. Schultz,  N. Shenvi,  A. C. Simmonett,  A. Sodt,  
 D. Stuck,  K. S. Thanthiriwatte,  V. Vanovschi,  Tao Wang,  A. Warshel,  
 C. F. Williams,  Q. Wu,  X. Xu,  W. Zhang

 Please cite Q-Chem as follows:
 Y. Shao et al., Mol. Phys. 113, 184-215 (2015)
 DOI: 10.1080/00268976.2014.952696

 Q-Chem 5.3.0 for Intel X86 EM64T Linux

 Parts of Q-Chem use Armadillo 9.800.1 (Horizon Scraper).
 http://arma.sourceforge.net/

 Q-Chem begins on Mon Jul 13 15:36:41 2020  

Host: centos77-c5
0

     Scratch files written to /tmp/29025.centos77-h1/qchem72108//
Processing $rem in /opt/qchem-5.3.0-intel2020u1//config/preferences:
Processing $rem in /home/shihchengli/.qchemrc:

Checking the input file for inconsistencies... 	...done.

--------------------------------------------------------------
User input:
--------------------------------------------------------------
$rem
   JOBTYPE  sp
   EXCHANGE   omegaB97X-D
   BASIS   6-311+G(2df,2pd)
   UNRESTRICTED   True
   max_scf_cycles   250
   geom_opt_max_cycles   1500
   basis2 6-31G*
   scf_algorithm rca_diis
   SYM_IGNORE  TRUE
   print_input   true
   geom_opt_dmax   80
   pop_mulliken false
   XC_GRID 000075000302
$end

$molecule
0 3
N       0.6824556102     1.2206449339     2.4720267448
O       0.3703364901     2.1914116714     1.8473935087
O       1.5904630760     0.9626827528     3.1843335494
N       0.0358156467     -1.1485290784     3.1423981851
O       -0.4875488806     -1.3353570369     4.1724201532
O       -0.2465308124     0.2041358671     2.2817277487
$end
--------------------------------------------------------------
 ----------------------------------------------------------------
             Standard Nuclear Orientation (Angstroms)
    I     Atom           X                Y                Z
 ----------------------------------------------------------------
    1      N       0.6824556102     1.2206449339     2.4720267448
    2      O       0.3703364901     2.1914116714     1.8473935087
    3      O       1.5904630760     0.9626827528     3.1843335494
    4      N       0.0358156467    -1.1485290784     3.1423981851
    5      O      -0.4875488806    -1.3353570369     4.1724201532
    6      O      -0.2465308124     0.2041358671     2.2817277487
 ----------------------------------------------------------------
 Nuclear Repulsion Energy =         232.44791367 hartrees
 There are       24 alpha and       22 beta electrons
 Requested basis set is 6-311+G(2df,2pd)
 There are 48 shells and 204 basis functions

 Total QAlloc Memory Limit   2000 MB
 Mega-Array Size       188 MB
 MEM_STATIC part       192 MB

                       Distance Matrix (Angstroms)
             N (  1)   O (  2)   O (  3)   N (  4)   O (  5)
   O (  2)  1.195815
   O (  3)  1.182541  2.187668
   N (  4)  2.545688  3.597797  2.622194
   O (  5)  3.285330  4.310431  3.251989  1.170368
   O (  6)  1.390151  2.125661  2.182805  1.627936  2.450071
 
 A cutoff of  1.0D-09 yielded   1025 shell pairs
 There are     19115 function pairs (     25053 Cartesian)
 Smallest overlap matrix eigenvalue = 6.67E-04

 Scale SEOQF with 1.000000e-01/1.000000e-01/1.000000e-01

 Standard Electronic Orientation quadrupole field applied
 Nucleus-field energy     =    -0.0000000363 hartrees
 Requested basis set is 6-31G(d)
 There are 24 shells and 84 basis functions
 A cutoff of  1.0D-09 yielded    269 shell pairs
 There are      3538 function pairs (      4066 Cartesian)
 Smallest overlap matrix eigenvalue = 4.59E-03
 Guess from superposition of atomic densities
 Warning:  Energy on first SCF cycle will be non-variational
 SAD guess density has 46.000000 electrons
 Long-range K will be added via erf
 Coulomb attenuation parameter = 0.2 bohr**(-1)
 An unrestricted hybrid HF-DFT SCF calculation will be
 performed using Relaxed Constraint Minimization + Pulay DIIS
 Exchange:     0.2220 Hartree-Fock + 1.0000 wB97X-D + LR-HF
 Correlation:  1.0000 wB97X-D
 Using Euler-Maclaurin-Lebedev (75,302) quadrature formula
 Dispersion:   Grimme D
 SCF converges when DIIS error is below 1.0E-04
 using 6 threads for integral computing
 -------------------------------------------------------
 OpenMP Integral computing Module                
 Release: version 1.0, May 2013, Q-Chem Inc. Pittsburgh 
 -------------------------------------------------------
 using 6 threads for integral computing
 -------------------------------------------------------
 OpenMP Integral computing Module                
 Release: version 1.0, May 2013, Q-Chem Inc. Pittsburgh 
 -------------------------------------------------------
 ---------------------------------------
  Cycle       Energy         DIIS Error
 ---------------------------------------
    1    -411.0766579573      8.90E-02
    2    -409.6554577589      1.96E-02
    3    -409.7599364307      4.51E-03
    4    -409.9096192335      4.72E-03
    5    -409.9158890750      6.24E-04 Done RCA. Switching to DIIS
    6    -409.9241324377      5.18E-04
    7    -409.9244917431      1.20E-04
    8    -409.9245582623      6.73E-05 Convergence criterion met
 ---------------------------------------
 <S^2> = 2.0154
 SCF time:  CPU 14.06 s  wall 2.36 s
 SCF   energy in the small basis set = -409.92455826
 Total energy in the small basis set = -409.92455826
 ----------------------------------------------------
  Cycle       Energy    
 ----------------------------------------------------
    1     -41.7705930204     -4.18E+01
 Long-range K will be added via erf
 Coulomb attenuation parameter = 0.2 bohr**(-1)
 An unrestricted hybrid HF-DFT SCF calculation will be
 performed using Relaxed Constraint Minimization + Pulay DIIS
 Exchange:     0.2220 Hartree-Fock + 1.0000 wB97X-D + LR-HF
 Correlation:  1.0000 wB97X-D
 Using Euler-Maclaurin-Lebedev (75,302) quadrature formula
 Dispersion:   Grimme D
 SCF converges when DIIS error is below 1.0E-05
 Basis2 calculation detected. Using small basis as guess for larger.
 SCFMinFind is unable to tell whether the solution found is close.
 Resetting ReadMinima to 0 and attempting to follow guess.
 SCFMinFind following SCF Guess.
 using 6 threads for integral computing
 -------------------------------------------------------
 OpenMP Integral computing Module                
 Release: version 1.0, May 2013, Q-Chem Inc. Pittsburgh 
 -------------------------------------------------------
 using 6 threads for integral computing
 -------------------------------------------------------
 OpenMP Integral computing Module                
 Release: version 1.0, May 2013, Q-Chem Inc. Pittsburgh 
 -------------------------------------------------------
 ---------------------------------------
  Cycle       Energy         DIIS Error
 ---------------------------------------
    1    -410.0120451838      8.04E-03
    2    -410.0188382016      4.28E-03
    3    -410.0412012631      1.23E-03
    4    -410.0732929933      1.20E-03
    5    -410.0758408046      1.54E-04 Done RCA. Switching to DIIS
    6    -410.0796152380      1.58E-04
    7    -410.0797893014      5.44E-05
    8    -410.0798783307      2.21E-05
    9    -410.0799065668      1.14E-05
   10    -410.0799151140      5.13E-06 Convergence criterion met
 ---------------------------------------
 <S^2> = 2.0178
 SCF time:  CPU 63.99 s  wall 10.70 s
 SCF   energy in the final basis set = -410.07991511
 Total energy in the final basis set = -410.07991511
 
 --------------------------------------------------------------
 
                    Orbital Energies (a.u.)
 --------------------------------------------------------------
 
 Alpha MOs
 -- Occupied --
-19.4124 -19.4006 -19.3509 -19.3446 -14.7751 -14.6228  -1.4482  -1.3691
 -1.2603  -1.2153  -0.8841  -0.7752  -0.7218  -0.7207  -0.6870  -0.6565
 -0.6336  -0.6304  -0.5028  -0.4979  -0.4644  -0.4604  -0.4381  -0.3424
 -- Virtual --
 -0.0235   0.0106   0.0828   0.1170   0.1346   0.1375   0.1426   0.1701
  0.1788   0.1851   0.2265   0.2421   0.2488   0.2648   0.2714   0.2889
  0.3051   0.3267   0.3357   0.3454   0.3513   0.3624   0.3694   0.3896
  0.3999   0.4331   0.4455   0.4613   0.4910   0.5301   0.7460   0.7716
  0.8017   0.8268   0.8636   0.8705   0.9308   0.9451   0.9752   1.0111
  1.0235   1.0459   1.0556   1.0752   1.0795   1.0849   1.1230   1.1288
  1.1378   1.1581   1.1635   1.1727   1.2173   1.2510   1.2600   1.3266
  1.4493   1.4758   1.5122   1.5514   1.5642   1.5953   1.6022   1.6244
  1.6502   1.6811   1.6927   1.7801   1.8561   1.8872   1.9299   1.9415
  2.0010   2.1212   2.1973   2.2431   2.3362   2.3797   2.4550   2.4964
  2.5400   2.5712   2.7071   2.8241   3.4979   3.5343   3.5835   3.6199
  3.6419   3.6630   3.6911   3.7040   3.7209   3.7699   3.7938   3.9025
  3.9513   4.0046   4.0220   4.0993   4.1092   4.4065   4.4681   4.4793
  4.4986   4.5952   4.6476   4.6543   4.6853   4.7116   4.7437   4.7809
  4.8175   4.9117   4.9948   4.9980   5.0218   5.0262   5.0432   5.0479
  5.0685   5.0828   5.0886   5.1089   5.1199   5.1448   5.1664   5.1703
  5.2223   5.2680   5.3152   5.3896   5.4152   5.4233   5.4649   5.5122
  5.5440   5.5961   5.6300   5.6737   5.8393   5.9143   6.0487   6.1370
  6.3511   6.5103   6.6428   6.6706   6.7198   6.7351   6.7442   6.7670
  6.7983   6.8251   6.8735   6.9264   6.9528   7.0266   7.1085   7.1351
  7.1552   7.1724   7.2061   7.2795   7.2889   7.3466   7.4585   7.5481
  7.6909   7.7083   7.8196   7.8767   7.9365   8.3225  35.9073  36.1256
 50.0014  50.1625  50.2333  50.2678
 
 Beta MOs
 -- Occupied --
-19.3996 -19.3825 -19.3486 -19.3450 -14.7749 -14.6044  -1.4428  -1.3306
 -1.2577  -1.1839  -0.8402  -0.7422  -0.7191  -0.7051  -0.6738  -0.6035
 -0.5838  -0.5573  -0.4795  -0.4703  -0.4630  -0.4466
 -- Virtual --
 -0.1523  -0.0208  -0.0090   0.0610   0.0887   0.1212   0.1380   0.1416
  0.1585   0.1742   0.1829   0.1893   0.2276   0.2465   0.2520   0.2663
  0.2743   0.2913   0.3124   0.3283   0.3368   0.3472   0.3531   0.3643
  0.3716   0.3983   0.4081   0.4375   0.4490   0.4659   0.5093   0.5357
  0.7564   0.7812   0.8150   0.8458   0.8738   0.8797   0.9344   0.9530
  0.9865   1.0218   1.0287   1.0586   1.0676   1.0864   1.0921   1.1014
  1.1333   1.1393   1.1469   1.1666   1.1773   1.1831   1.2287   1.2597
  1.2751   1.3426   1.4631   1.4900   1.5170   1.5564   1.5679   1.6039
  1.6215   1.6456   1.6653   1.7001   1.7092   1.7832   1.8629   1.8997
  1.9351   1.9585   2.0165   2.1348   2.2114   2.2547   2.3499   2.3896
  2.4686   2.5098   2.5435   2.5774   2.7165   2.8280   3.5262   3.5702
  3.5977   3.6377   3.6557   3.6676   3.7018   3.7165   3.7356   3.8015
  3.8606   3.9215   3.9829   4.0192   4.0272   4.1102   4.1250   4.4094
  4.4720   4.4873   4.5004   4.6229   4.6545   4.6935   4.7187   4.7294
  4.7691   4.8139   4.8679   4.9617   5.0117   5.0161   5.0451   5.0482
  5.0568   5.0641   5.0824   5.0905   5.1113   5.1243   5.1330   5.1653
  5.1951   5.2040   5.2322   5.2934   5.3303   5.4073   5.4245   5.4333
  5.4813   5.5368   5.5654   5.6058   5.6514   5.6908   5.8432   5.9209
  6.0703   6.1654   6.3662   6.5125   6.6872   6.7030   6.7456   6.7707
  6.7933   6.8034   6.8039   6.8330   6.8757   6.9315   6.9814   7.0418
  7.1338   7.1491   7.1596   7.2046   7.2334   7.2881   7.2994   7.3685
  7.4848   7.5567   7.7201   7.7298   7.8306   7.8947   7.9446   8.3249
 35.9295  36.1260  50.0146  50.1795  50.2357  50.2676
 --------------------------------------------------------------
 
 -----------------------------------------------------------------
                    Cartesian Multipole Moments
 -----------------------------------------------------------------
    Charge (ESU x 10^10)
                -0.0000
    Dipole Moment (Debye)
         X      -0.2768      Y      -0.8258      Z       0.0829
       Tot       0.8749
    Quadrupole Moments (Debye-Ang)
        XX     -33.1635     XY      -1.0407     YY     -33.4698
        XZ      -1.9868     YZ      -0.9559     ZZ     -32.0886
    Octopole Moments (Debye-Ang^2)
       XXX     -34.1231    XXY     -13.0526    XYY     -11.5533
       YYY     -41.7633    XXZ     -96.2670    XYZ      -4.3314
       YYZ     -91.6703    XZZ     -18.3236    YZZ     -10.2419
       ZZZ    -276.0950
    Hexadecapole Moments (Debye-Ang^3)
      XXXX    -138.4318   XXXY     -62.5475   XXYY     -83.8449
      XYYY     -64.5412   YYYY    -365.4757   XXXZ     -90.9488
      XXYZ     -14.8699   XYYZ     -28.9603   YYYZ     -39.5203
      XXZZ    -322.4219   XYZZ     -36.3381   YYZZ    -335.1864
      XZZZ    -106.4214   YZZZ      -9.7848   ZZZZ   -1708.6458
 -----------------------------------------------------------------
Archival summary:
1\1\centos77-c5\SP\ProcedureUnspecified\BasisUnspecified\42(3)\shihchen\MonJul1315:36:562020MonJul1315:36:562020\0\\#,ProcedureUnspecified,BasisUnspecified,\\0,3\N\O,1,1.18254\O,1,1.19581,2,133.8\O,1,1.39015,2,115.853,3,179.539,0\N,4,1.62794,1,114.791,2,3.17234,0\O,5,1.17037,4,121.357,1,95.6921,0\\\@

 Total job time:  15.35s(wall), 82.15s(cpu) 
 Mon Jul 13 15:36:56 2020

        *************************************************************
        *                                                           *
        *  Thank you very much for using Q-Chem.  Have a nice day.  *
        *                                                           *
        *************************************************************


