                  Welcome to Q-Chem
     A Quantum Leap Into The Future Of Chemistry


 Q-Chem 5.3 (devel), Q-Chem, Inc., Pleasanton, CA (2020)

 Yihan Shao,  Zhengting Gan,  E. Epifanovsky,  A. T. B. Gilbert,  M. Wormit,  
 J. Kussmann,  A. W. Lange,  A. Behn,  Jia Deng,  Xintian Feng,  D. Ghosh,  
 M. Goldey,  P. R. Horn,  L. D. Jacobson,  I. Kaliman,  T. Kus,  A. Landau,  
 Jie Liu,  E. I. Proynov,  R. M. Richard,  R. P. Steele,  E. J. Sundstrom,  
 H. L. Woodcock III,  P. M. Zimmerman,  D. Zuev,  B. Alam,  B. Albrecht,  
 E. Alguire,  S. A. Baeppler,  D. Barton,  Z. Benda,  Y. A. Bernard,  
 E. J. Berquist,  K. B. Bravaya,  H. Burton,  K. Carter-Fenk,  D. Casanova,  
 Chun-Min Chang,  Yunqing Chen,  A. Chien,  K. D. Closser,  M. P. Coons,  
 S. Coriani,  S. Dasgupta,  A. L. Dempwolff,  M. Diedenhofen,  Hainam Do,  
 R. G. Edgar,  Po-Tung Fang,  S. Faraji,  S. Fatehi,  Qingguo Feng,  
 J. Fosso-Tande,  J. Gayvert,  Qinghui Ge,  A. Ghysels,  G. Gidofalvi,  
 J. Gomes,  J. Gonthier,  A. Gunina,  D. Hait,  M. W. D. Hanson-Heine,  
 P. H. P. Harbach,  A. W. Hauser,  M. F. Herbst,  J. E. Herr,  
 E. G. Hohenstein,  Z. C. Holden,  Kerwin Hui,  B. C. Huynh,  T.-C. Jagau,  
 Hyunjun Ji,  B. Kaduk,  K. Khistyaev,  Jaehoon Kim,  P. Klunzinger,  K. Koh,  
 D. Kosenkov,  L. Koulias,  T. Kowalczyk,  C. M. Krauter,  A. Kunitsa,  
 Ka Un Lao,  A. Laurent,  K. V. Lawler,  Joonho Lee,  D. Lefrancois,  
 S. Lehtola,  D. S. Levine,  Yi-Pei Li,  You-Sheng Lin,  Fenglai Liu,  
 Kuan-Yu Liu,  E. Livshits,  M. Loipersberger,  A. Luenser,  P. Manohar,  
 E. Mansoor,  S. F. Manzer,  Shan-Ping Mao,  Yuezhi Mao,  N. Mardirossian,  
 A. V. Marenich,  T. Markovich,  L. A. Martinez-Martinez,  S. A. Maurer,  
 N. J. Mayhall,  S. C. McKenzie,  J.-M. Mewes,  P. Morgante,  A. F. Morrison,  
 J. W. Mullinax,  K. Nanda,  T. S. Nguyen-Beck,  R. Olivares-Amaya,  
 K. J. Oosterbaan,  J. A. Parkhill,  S. K. Paul,  F. Pavosevic,  Zheng Pei,  
 T. M. Perrine,  F. Plasser,  P. Pokhilko,  S. Prager,  A. Prociuk,  
 E. Ramos,  B. Rana,  D. R. Rehn,  F. Rob,  M. Scheurer,  M. Schneider,  
 N. Sergueev,  S. M. Sharada,  S. Sharma,  D. W. Small,  T. Stauch,  
 C. J. Stein,  T. Stein,  Yu-Chuan Su,  S. P. Veccham,  Zhen Tao,  
 A. J. W. Thom,  A. Tkatchenko,  T. Tsuchimochi,  N. M. Tubman,  L. Vogt,  
 M. L. Vidal,  O. Vydrov,  M. A. Watson,  J. Wenzel,  M. de Wergifosse,  
 T. A. Wesolowski,  A. White,  J. Witte,  A. Yamada,  Jun Yang,  K. Yao,  
 S. Yeganeh,  S. R. Yost,  Zhi-Qiang You,  A. Zech,  Igor Ying Zhang,  
 Xing Zhang,  Yan Zhao,  Ying Zhu,  B. R. Brooks,  G. K. L. Chan,  
 C. J. Cramer,  M. S. Gordon,  W. J. Hehre,  A. Klamt,  M. W. Schmidt,  
 C. D. Sherrill,  D. G. Truhlar,  A. Aspuru-Guzik,  R. Baer,  A. T. Bell,  
 N. A. Besley,  Jeng-Da Chai,  A. E. DePrince, III,  R. A. DiStasio Jr.,  
 A. Dreuw,  B. D. Dunietz,  T. R. Furlani,  Chao-Ping Hsu,  Yousung Jung,  
 Jing Kong,  D. S. Lambrecht,  WanZhen Liang,  C. Ochsenfeld,  
 V. A. Rassolov,  L. V. Slipchenko,  J. E. Subotnik,  T. Van Voorhis,  
 J. M. Herbert,  A. I. Krylov,  P. M. W. Gill,  M. Head-Gordon

 Contributors to earlier versions of Q-Chem not listed above: 
 R. D. Adamson,  B. Austin,  J. Baker,  G. J. O. Beran,  K. Brandhorst,  
 S. T. Brown,  E. F. C. Byrd,  A. K. Chakraborty,  C.-L. Cheng,  
 Siu Hung Chien,  D. M. Chipman,  D. L. Crittenden,  H. Dachsel,  
 R. J. Doerksen,  A. D. Dutoi,  L. Fusti-Molnar,  W. A. Goddard III,  
 A. Golubeva-Zadorozhnaya,  S. R. Gwaltney,  G. Hawkins,  A. Heyden,  
 S. Hirata,  G. Kedziora,  F. J. Keil,  C. Kelley,  Jihan Kim,  R. A. King,  
 R. Z. Khaliullin,  P. P. Korambath,  W. Kurlancheek,  A. M. Lee,  M. S. Lee,  
 S. V. Levchenko,  Ching Yeh Lin,  D. Liotard,  R. C. Lochan,  I. Lotan,  
 P. E. Maslen,  N. Nair,  D. P. O'Neill,  D. Neuhauser,  E. Neuscamman,  
 C. M. Oana,  R. Olson,  B. Peters,  R. Peverati,  P. A. Pieniazek,  
 Y. M. Rhee,  J. Ritchie,  M. A. Rohrdanz,  E. Rosta,  N. J. Russ,  
 H. F. Schaefer III,  N. E. Schultz,  N. Shenvi,  A. C. Simmonett,  A. Sodt,  
 D. Stuck,  K. S. Thanthiriwatte,  V. Vanovschi,  Tao Wang,  A. Warshel,  
 C. F. Williams,  Q. Wu,  X. Xu,  W. Zhang

 Please cite Q-Chem as follows:
 Y. Shao et al., Mol. Phys. 113, 184-215 (2015)
 DOI: 10.1080/00268976.2014.952696

 Q-Chem 5.3.0 for Intel X86 EM64T Linux

 Parts of Q-Chem use Armadillo 9.800.1 (Horizon Scraper).
 http://arma.sourceforge.net/

 Q-Chem begins on Mon Jul 13 15:40:54 2020  

Host: centos77-c5
0

     Scratch files written to /tmp/29025.centos77-h1/qchem16934//
Processing $rem in /opt/qchem-5.3.0-intel2020u1//config/preferences:
Processing $rem in /home/shihchengli/.qchemrc:

Checking the input file for inconsistencies... 	...done.

--------------------------------------------------------------
User input:
--------------------------------------------------------------
$rem
   JOBTYPE  sp
   EXCHANGE   omegaB97X-D
   BASIS   6-311+G(2df,2pd)
   UNRESTRICTED   True
   max_scf_cycles   250
   geom_opt_max_cycles   1500
   basis2 6-31G*
   scf_algorithm rca_diis
   SYM_IGNORE  TRUE
   print_input   true
   geom_opt_dmax   80
   pop_mulliken false
   XC_GRID 000075000302
$end

$molecule
0 3
N       0.3018848595     1.5354005563     3.1323635665
O       0.1034498152     2.1912312718     1.9692268564
O       2.2278808126     0.9485653218     2.4351623435
N       0.3430942533     -1.0899163726     3.5310901994
O       -1.2316919682     -1.3762862614     4.0199474169
O       0.2003733577     -0.1140054060     2.0125095074
$end
--------------------------------------------------------------
 ----------------------------------------------------------------
             Standard Nuclear Orientation (Angstroms)
    I     Atom           X                Y                Z
 ----------------------------------------------------------------
    1      N       0.3018848595     1.5354005563     3.1323635665
    2      O       0.1034498152     2.1912312718     1.9692268564
    3      O       2.2278808126     0.9485653218     2.4351623435
    4      N       0.3430942533    -1.0899163726     3.5310901994
    5      O      -1.2316919682    -1.3762862614     4.0199474169
    6      O       0.2003733577    -0.1140054060     2.0125095074
 ----------------------------------------------------------------
 Nuclear Repulsion Energy =         191.69397972 hartrees
 There are       24 alpha and       22 beta electrons
 Requested basis set is 6-311+G(2df,2pd)
 There are 48 shells and 204 basis functions

 Total QAlloc Memory Limit   2000 MB
 Mega-Array Size       188 MB
 MEM_STATIC part       192 MB

                       Distance Matrix (Angstroms)
             N (  1)   O (  2)   O (  3)   N (  4)   O (  5)
   O (  2)  1.349955
   O (  3)  2.130710  2.504900
   N (  4)  2.655743  3.641809  2.984776
   O (  5)  3.408458  4.326111  4.459274  1.673601
   O (  6)  1.996226  2.307679  2.327763  1.810762  2.770193
 
 A cutoff of  1.0D-09 yielded    986 shell pairs
 There are     18321 function pairs (     23949 Cartesian)
 Smallest overlap matrix eigenvalue = 9.73E-04

 Scale SEOQF with 1.000000e-01/1.000000e-01/1.000000e-01

 Standard Electronic Orientation quadrupole field applied
 Nucleus-field energy     =    -0.0000000344 hartrees
 Requested basis set is 6-31G(d)
 There are 24 shells and 84 basis functions
 A cutoff of  1.0D-09 yielded    254 shell pairs
 There are      3392 function pairs (      3895 Cartesian)
 Smallest overlap matrix eigenvalue = 1.36E-02
 Guess from superposition of atomic densities
 Warning:  Energy on first SCF cycle will be non-variational
 SAD guess density has 46.000000 electrons
 Long-range K will be added via erf
 Coulomb attenuation parameter = 0.2 bohr**(-1)
 An unrestricted hybrid HF-DFT SCF calculation will be
 performed using Relaxed Constraint Minimization + Pulay DIIS
 Exchange:     0.2220 Hartree-Fock + 1.0000 wB97X-D + LR-HF
 Correlation:  1.0000 wB97X-D
 Using Euler-Maclaurin-Lebedev (75,302) quadrature formula
 Dispersion:   Grimme D
 SCF converges when DIIS error is below 1.0E-04
 using 6 threads for integral computing
 -------------------------------------------------------
 OpenMP Integral computing Module                
 Release: version 1.0, May 2013, Q-Chem Inc. Pittsburgh 
 -------------------------------------------------------
 using 6 threads for integral computing
 -------------------------------------------------------
 OpenMP Integral computing Module                
 Release: version 1.0, May 2013, Q-Chem Inc. Pittsburgh 
 -------------------------------------------------------
 ---------------------------------------
  Cycle       Energy         DIIS Error
 ---------------------------------------
    1    -408.5599949688      3.75E-02
    2    -408.5570589987      2.85E-02
    3    -408.8961989006      1.09E-02
    4    -408.9582098754      5.39E-03
    5    -409.1220279527      1.14E-02
    6    -409.1765687847      4.71E-03
    7    -409.2746507380      9.28E-03
    8    -409.3110709920      2.35E-03
    9    -409.4562747433      5.78E-03
   10    -409.4656404611      1.86E-03
   11    -409.4818438725      1.76E-03
   12    -409.4862210421      1.40E-03
   13    -409.4941491269      2.89E-03
   14    -409.4977509916      6.01E-04 Done RCA. Switching to DIIS
   15    -409.5099564041      1.45E-03
   16    -409.5169849699      6.28E-04
   17    -409.5181074279      6.33E-04
   18    -409.5192285904      6.71E-04
   19    -409.5176353335      7.33E-04
   20    -409.5173372463      7.42E-04
   21    -409.5159368918      4.11E-04
   22    -409.5258644825      4.99E-04
   23    -409.5264487283      5.08E-04
   24    -409.5271894736      5.37E-04
   25    -409.5241188491      6.05E-04
   26    -409.5241233203      6.12E-04
   27    -409.5234812239      5.95E-04
   28    -409.5239754749      5.70E-04
   29    -409.5245289096      5.47E-04
   30    -409.5215874731      5.15E-04
   31    -409.5239355106      1.14E-03
   32    -409.5257909870      3.80E-04
   33    -409.5277314241      3.27E-04
   34    -409.5282202134      3.26E-04
   35    -409.5264846597      3.27E-04
   36    -409.5263669118      3.25E-04
   37    -409.5240177459      3.15E-04
   38    -409.5239420477      3.07E-04
   39    -409.5261107914      2.76E-04
   40    -409.5275347951      2.50E-04
   41    -409.5309758879      3.49E-04
   42    -409.5321708028      3.41E-04
   43    -409.5337310748      2.79E-04
   44    -409.5341736503      2.80E-04
   45    -409.5368395690      3.50E-04
   46    -409.5380536645      3.13E-04
   47    -409.5396491252      2.73E-04
   48    -409.5406008053      2.78E-04
   49    -409.5397199137      2.77E-04
   50    -409.5358220858      3.17E-04
   51    -409.5343009444      3.16E-04
   52    -409.5348232375      1.69E-04
   53    -409.5357963574      1.47E-04
   54    -409.5365637532      1.64E-04
   55    -409.5380611211      1.32E-04
   56    -409.5391437108      1.24E-04
   57    -409.5408795294      1.43E-04
   58    -409.5422998847      1.36E-04
   59    -409.5430929315      8.99E-05 Convergence criterion met
 ---------------------------------------
 <S^2> = 2.9834
 SCF time:  CPU 80.43 s  wall 13.50 s
 SCF   energy in the small basis set = -409.54309293
 Total energy in the small basis set = -409.54309293
 ----------------------------------------------------
  Cycle       Energy    
 ----------------------------------------------------
    1     -41.0013969982     -4.10E+01
 Long-range K will be added via erf
 Coulomb attenuation parameter = 0.2 bohr**(-1)
 An unrestricted hybrid HF-DFT SCF calculation will be
 performed using Relaxed Constraint Minimization + Pulay DIIS
 Exchange:     0.2220 Hartree-Fock + 1.0000 wB97X-D + LR-HF
 Correlation:  1.0000 wB97X-D
 Using Euler-Maclaurin-Lebedev (75,302) quadrature formula
 Dispersion:   Grimme D
 SCF converges when DIIS error is below 1.0E-05
 Basis2 calculation detected. Using small basis as guess for larger.
 SCFMinFind is unable to tell whether the solution found is close.
 Resetting ReadMinima to 0 and attempting to follow guess.
 SCFMinFind following SCF Guess.
 using 6 threads for integral computing
 -------------------------------------------------------
 OpenMP Integral computing Module                
 Release: version 1.0, May 2013, Q-Chem Inc. Pittsburgh 
 -------------------------------------------------------
 using 6 threads for integral computing
 -------------------------------------------------------
 OpenMP Integral computing Module                
 Release: version 1.0, May 2013, Q-Chem Inc. Pittsburgh 
 -------------------------------------------------------
 ---------------------------------------
  Cycle       Energy         DIIS Error
 ---------------------------------------
    1    -409.5445454865      8.71E-03
    2    -409.2429159948      1.02E-02
    3    -409.3661753392      4.73E-03
    4    -409.4449322523      1.50E-03
    5    -409.5764424371      4.89E-03
    6    -409.6105045692      1.72E-03
    7    -409.6280764819      7.23E-04 Done RCA. Switching to DIIS
    8    -409.6634407624      2.27E-03
    9    -409.6854199034      2.56E-04
   10    -409.6874120938      1.15E-04
   11    -409.6895264203      9.89E-05
   12    -409.6926050170      1.29E-04
   13    -409.6937768014      1.25E-04
   14    -409.6966711028      1.22E-04
   15    -409.6972960334      1.22E-04
   16    -409.6912682833      1.44E-04
   17    -409.6894635345      1.35E-04
   18    -409.6884345917      9.60E-05
   19    -409.6886574868      7.72E-05
   20    -409.6888630446      6.96E-05
   21    -409.6892938864      6.49E-05
   22    -409.6894870455      2.13E-05
   23    -409.6896503640      2.60E-05
   24    -409.6895907963      1.79E-05
   25    -409.6896220738      4.61E-05
   26    -409.6896427362      1.54E-05
   27    -409.6896776131      2.80E-05
   28    -409.6896955638      8.20E-06 Convergence criterion met
 ---------------------------------------
 <S^2> = 2.7055
 SCF time:  CPU 146.74 s  wall 24.52 s
 SCF   energy in the final basis set = -409.68969556
 Total energy in the final basis set = -409.68969556
 
 --------------------------------------------------------------
 
                    Orbital Energies (a.u.)
 --------------------------------------------------------------
 
 Alpha MOs
 -- Occupied --
-19.4163 -19.4121 -19.3836 -19.3833 -14.6984 -14.6798  -1.2542  -1.1475
 -1.1221  -1.0778  -0.8603  -0.8437  -0.6186  -0.5986  -0.5870  -0.5706
 -0.5418  -0.5314  -0.5110  -0.4897  -0.4808  -0.4551  -0.4430  -0.4264
 -- Virtual --
 -0.1498  -0.1121  -0.0898  -0.0587  -0.0019   0.1137   0.1192   0.1378
  0.1439   0.1774   0.1899   0.1961   0.2141   0.2235   0.2331   0.2561
  0.2641   0.2737   0.2852   0.2923   0.3197   0.3255   0.3338   0.3475
  0.3674   0.3907   0.4060   0.4185   0.4401   0.4824   0.7250   0.7803
  0.8149   0.8309   0.8425   0.8638   0.8733   0.9186   0.9440   0.9650
  0.9861   0.9943   1.0189   1.0460   1.0633   1.0921   1.1150   1.1260
  1.1323   1.1340   1.1570   1.1601   1.1833   1.1901   1.2117   1.2399
  1.2735   1.3278   1.4149   1.4426   1.4744   1.4947   1.5125   1.5350
  1.5464   1.5638   1.5894   1.6139   1.6156   1.6285   1.6443   1.6717
  1.7347   1.8060   1.8595   1.8786   1.9451   1.9732   2.0509   2.0738
  2.2774   2.3249   2.3464   2.3923   3.5106   3.5149   3.5565   3.5619
  3.5707   3.5943   3.6112   3.6420   3.6481   3.6760   3.7385   3.7612
  3.7849   3.7872   3.7998   3.8437   3.8528   3.8999   3.9079   4.1588
  4.6641   4.6867   4.7170   4.7398   4.7527   4.7871   4.8049   4.8472
  4.8676   4.9056   4.9090   4.9304   4.9310   4.9640   4.9669   4.9797
  4.9865   4.9927   4.9998   5.0109   5.0182   5.0314   5.0366   5.0453
  5.0576   5.0743   5.0795   5.0801   5.1012   5.1032   5.1093   5.1235
  5.1544   5.1734   5.1830   5.1918   5.2303   5.2462   5.2777   5.3088
  5.3433   5.3770   5.3832   5.4960   5.6558   5.7201   5.9568   5.9615
  5.9975   6.6166   6.6330   6.6666   6.6806   6.7292   6.7458   6.7463
  6.7731   6.8311   6.8733   6.9105   6.9233   6.9322   6.9678   6.9977
  7.0846   7.1268   7.1877   7.4153   7.4795   7.6047  35.2839  35.4850
 49.8108  49.8918  49.9291  49.9535
 
 Beta MOs
 -- Occupied --
-19.4195 -19.3852 -19.3706 -19.3568 -14.7038 -14.6853  -1.2672  -1.1088
 -1.0360  -0.9798  -0.8682  -0.8615  -0.6054  -0.6036  -0.5834  -0.5359
 -0.5182  -0.4788  -0.4369  -0.4288  -0.4126  -0.3964
 -- Virtual --
 -0.1621  -0.1362  -0.1102  -0.0930  -0.0841  -0.0471  -0.0056   0.1143
  0.1166   0.1393   0.1488   0.1767   0.1918   0.1958   0.2171   0.2197
  0.2380   0.2617   0.2659   0.2775   0.2873   0.2914   0.3203   0.3317
  0.3377   0.3503   0.3679   0.3954   0.4112   0.4208   0.4424   0.4876
  0.7219   0.7797   0.8153   0.8319   0.8388   0.8568   0.8881   0.9203
  0.9489   0.9679   0.9943   1.0029   1.0181   1.0496   1.0689   1.1036
  1.1196   1.1294   1.1483   1.1541   1.1699   1.1835   1.1995   1.2095
  1.2294   1.2517   1.2860   1.3280   1.4185   1.4703   1.5108   1.5330
  1.5466   1.5590   1.5662   1.5905   1.5957   1.6204   1.6272   1.6434
  1.6588   1.6952   1.7541   1.8064   1.8865   1.9005   1.9685   1.9881
  2.0634   2.0842   2.2877   2.3369   2.3486   2.3958   3.4992   3.5040
  3.5413   3.5483   3.5577   3.5822   3.6086   3.6272   3.6419   3.6665
  3.7343   3.7514   3.7729   3.7770   3.7878   3.8240   3.8371   3.8822
  3.8990   4.1545   4.6582   4.6816   4.7078   4.7313   4.7428   4.7934
  4.8117   4.8486   4.8657   4.9100   4.9696   4.9778   4.9942   4.9967
  5.0088   5.0167   5.0239   5.0438   5.0611   5.0720   5.0736   5.0761
  5.0817   5.0832   5.0877   5.0901   5.0964   5.1098   5.1219   5.1277
  5.1541   5.1586   5.1992   5.2159   5.2169   5.2295   5.2580   5.2951
  5.3132   5.3265   5.3655   5.3804   5.3867   5.5223   5.6545   5.7372
  5.9542   5.9565   5.9865   6.7093   6.7121   6.7334   6.7377   6.7717
  6.7844   6.7902   6.8589   6.8721   6.8900   6.9238   6.9790   6.9935
  7.0515   7.0689   7.1253   7.1531   7.1876   7.4636   7.4894   7.6125
 35.2748  35.4765  49.8665  49.8931  49.9256  49.9775
 --------------------------------------------------------------
 
 -----------------------------------------------------------------
                    Cartesian Multipole Moments
 -----------------------------------------------------------------
    Charge (ESU x 10^10)
                -0.0000
    Dipole Moment (Debye)
         X       0.9857      Y       1.1157      Z       0.5734
       Tot       1.5953
    Quadrupole Moments (Debye-Ang)
        XX     -32.5807     XY      -0.7373     YY     -31.3241
        XZ       4.1078     YZ       4.6626     ZZ     -30.6371
    Octopole Moments (Debye-Ang^2)
       XXX     -28.1218    XXY      -8.5681    XYY      -7.4892
       YYY     -30.0954    XXZ     -92.1392    XYZ      -3.4697
       YYZ     -90.4806    XZZ       4.8883    YZZ       8.7969
       ZZZ    -278.3344
    Hexadecapole Moments (Debye-Ang^3)
      XXXX    -230.1227   XXXY     -63.1069   XXYY    -100.3691
      XYYY     -63.7166   YYYY    -385.0497   XXXZ     -40.4254
      XXYZ      -2.2185   XYYZ      -8.2105   YYYZ     -13.6143
      XXZZ    -327.0940   XYZZ     -37.8040   YYZZ    -351.1730
      XZZZ       4.5389   YZZZ      56.2972   ZZZZ   -1770.6932
 -----------------------------------------------------------------
Archival summary:
1\1\centos77-c5\SP\ProcedureUnspecified\BasisUnspecified\42(3)\shihchen\MonJul1315:41:342020MonJul1315:41:342020\0\\#,ProcedureUnspecified,BasisUnspecified,\\0,3\O\N,1,1.81076\O,2,1.6736,1,105.249\N,1,1.99623,2,88.329,3,91.9632,0\O,4,1.34995,1,84.8701,2,-176.21,0\O,4,2.13071,1,68.5823,2,92.7155,0\\\@

 Total job time:  40.08s(wall), 230.99s(cpu) 
 Mon Jul 13 15:41:34 2020

        *************************************************************
        *                                                           *
        *  Thank you very much for using Q-Chem.  Have a nice day.  *
        *                                                           *
        *************************************************************


