                  Welcome to Q-Chem
     A Quantum Leap Into The Future Of Chemistry


 Q-Chem 5.3 (devel), Q-Chem, Inc., Pleasanton, CA (2020)

 Yihan Shao,  Zhengting Gan,  E. Epifanovsky,  A. T. B. Gilbert,  M. Wormit,  
 J. Kussmann,  A. W. Lange,  A. Behn,  Jia Deng,  Xintian Feng,  D. Ghosh,  
 M. Goldey,  P. R. Horn,  L. D. Jacobson,  I. Kaliman,  T. Kus,  A. Landau,  
 Jie Liu,  E. I. Proynov,  R. M. Richard,  R. P. Steele,  E. J. Sundstrom,  
 H. L. Woodcock III,  P. M. Zimmerman,  D. Zuev,  B. Alam,  B. Albrecht,  
 E. Alguire,  S. A. Baeppler,  D. Barton,  Z. Benda,  Y. A. Bernard,  
 E. J. Berquist,  K. B. Bravaya,  H. Burton,  K. Carter-Fenk,  D. Casanova,  
 Chun-Min Chang,  Yunqing Chen,  A. Chien,  K. D. Closser,  M. P. Coons,  
 S. Coriani,  S. Dasgupta,  A. L. Dempwolff,  M. Diedenhofen,  Hainam Do,  
 R. G. Edgar,  Po-Tung Fang,  S. Faraji,  S. Fatehi,  Qingguo Feng,  
 J. Fosso-Tande,  J. Gayvert,  Qinghui Ge,  A. Ghysels,  G. Gidofalvi,  
 J. Gomes,  J. Gonthier,  A. Gunina,  D. Hait,  M. W. D. Hanson-Heine,  
 P. H. P. Harbach,  A. W. Hauser,  M. F. Herbst,  J. E. Herr,  
 E. G. Hohenstein,  Z. C. Holden,  Kerwin Hui,  B. C. Huynh,  T.-C. Jagau,  
 Hyunjun Ji,  B. Kaduk,  K. Khistyaev,  Jaehoon Kim,  P. Klunzinger,  K. Koh,  
 D. Kosenkov,  L. Koulias,  T. Kowalczyk,  C. M. Krauter,  A. Kunitsa,  
 Ka Un Lao,  A. Laurent,  K. V. Lawler,  Joonho Lee,  D. Lefrancois,  
 S. Lehtola,  D. S. Levine,  Yi-Pei Li,  You-Sheng Lin,  Fenglai Liu,  
 Kuan-Yu Liu,  E. Livshits,  M. Loipersberger,  A. Luenser,  P. Manohar,  
 E. Mansoor,  S. F. Manzer,  Shan-Ping Mao,  Yuezhi Mao,  N. Mardirossian,  
 A. V. Marenich,  T. Markovich,  L. A. Martinez-Martinez,  S. A. Maurer,  
 N. J. Mayhall,  S. C. McKenzie,  J.-M. Mewes,  P. Morgante,  A. F. Morrison,  
 J. W. Mullinax,  K. Nanda,  T. S. Nguyen-Beck,  R. Olivares-Amaya,  
 K. J. Oosterbaan,  J. A. Parkhill,  S. K. Paul,  F. Pavosevic,  Zheng Pei,  
 T. M. Perrine,  F. Plasser,  P. Pokhilko,  S. Prager,  A. Prociuk,  
 E. Ramos,  B. Rana,  D. R. Rehn,  F. Rob,  M. Scheurer,  M. Schneider,  
 N. Sergueev,  S. M. Sharada,  S. Sharma,  D. W. Small,  T. Stauch,  
 C. J. Stein,  T. Stein,  Yu-Chuan Su,  S. P. Veccham,  Zhen Tao,  
 A. J. W. Thom,  A. Tkatchenko,  T. Tsuchimochi,  N. M. Tubman,  L. Vogt,  
 M. L. Vidal,  O. Vydrov,  M. A. Watson,  J. Wenzel,  M. de Wergifosse,  
 T. A. Wesolowski,  A. White,  J. Witte,  A. Yamada,  Jun Yang,  K. Yao,  
 S. Yeganeh,  S. R. Yost,  Zhi-Qiang You,  A. Zech,  Igor Ying Zhang,  
 Xing Zhang,  Yan Zhao,  Ying Zhu,  B. R. Brooks,  G. K. L. Chan,  
 C. J. Cramer,  M. S. Gordon,  W. J. Hehre,  A. Klamt,  M. W. Schmidt,  
 C. D. Sherrill,  D. G. Truhlar,  A. Aspuru-Guzik,  R. Baer,  A. T. Bell,  
 N. A. Besley,  Jeng-Da Chai,  A. E. DePrince, III,  R. A. DiStasio Jr.,  
 A. Dreuw,  B. D. Dunietz,  T. R. Furlani,  Chao-Ping Hsu,  Yousung Jung,  
 Jing Kong,  D. S. Lambrecht,  WanZhen Liang,  C. Ochsenfeld,  
 V. A. Rassolov,  L. V. Slipchenko,  J. E. Subotnik,  T. Van Voorhis,  
 J. M. Herbert,  A. I. Krylov,  P. M. W. Gill,  M. Head-Gordon

 Contributors to earlier versions of Q-Chem not listed above: 
 R. D. Adamson,  B. Austin,  J. Baker,  G. J. O. Beran,  K. Brandhorst,  
 S. T. Brown,  E. F. C. Byrd,  A. K. Chakraborty,  C.-L. Cheng,  
 Siu Hung Chien,  D. M. Chipman,  D. L. Crittenden,  H. Dachsel,  
 R. J. Doerksen,  A. D. Dutoi,  L. Fusti-Molnar,  W. A. Goddard III,  
 A. Golubeva-Zadorozhnaya,  S. R. Gwaltney,  G. Hawkins,  A. Heyden,  
 S. Hirata,  G. Kedziora,  F. J. Keil,  C. Kelley,  Jihan Kim,  R. A. King,  
 R. Z. Khaliullin,  P. P. Korambath,  W. Kurlancheek,  A. M. Lee,  M. S. Lee,  
 S. V. Levchenko,  Ching Yeh Lin,  D. Liotard,  R. C. Lochan,  I. Lotan,  
 P. E. Maslen,  N. Nair,  D. P. O'Neill,  D. Neuhauser,  E. Neuscamman,  
 C. M. Oana,  R. Olson,  B. Peters,  R. Peverati,  P. A. Pieniazek,  
 Y. M. Rhee,  J. Ritchie,  M. A. Rohrdanz,  E. Rosta,  N. J. Russ,  
 H. F. Schaefer III,  N. E. Schultz,  N. Shenvi,  A. C. Simmonett,  A. Sodt,  
 D. Stuck,  K. S. Thanthiriwatte,  V. Vanovschi,  Tao Wang,  A. Warshel,  
 C. F. Williams,  Q. Wu,  X. Xu,  W. Zhang

 Please cite Q-Chem as follows:
 Y. Shao et al., Mol. Phys. 113, 184-215 (2015)
 DOI: 10.1080/00268976.2014.952696

 Q-Chem 5.3.0 for Intel X86 EM64T Linux

 Parts of Q-Chem use Armadillo 9.800.1 (Horizon Scraper).
 http://arma.sourceforge.net/

 Q-Chem begins on Mon Jul 13 15:37:13 2020  

Host: centos77-c5
0

     Scratch files written to /tmp/29025.centos77-h1/qchem81125//
Processing $rem in /opt/qchem-5.3.0-intel2020u1//config/preferences:
Processing $rem in /home/shihchengli/.qchemrc:

Checking the input file for inconsistencies... 	...done.

--------------------------------------------------------------
User input:
--------------------------------------------------------------
$rem
   JOBTYPE  sp
   EXCHANGE   omegaB97X-D
   BASIS   6-311+G(2df,2pd)
   UNRESTRICTED   True
   max_scf_cycles   250
   geom_opt_max_cycles   1500
   basis2 6-31G*
   scf_algorithm rca_diis
   SYM_IGNORE  TRUE
   print_input   true
   geom_opt_dmax   80
   pop_mulliken false
   XC_GRID 000075000302
$end

$molecule
0 3
N       0.6588757752     1.2473843580     2.4838262547
O       0.3412670917     2.2090041638     1.8267901825
O       1.5836989782     0.9182156163     3.1438861304
N       0.0502176611     -1.1366921406     3.1605452029
O       -0.5313952333     -1.3514910025     4.1595747328
O       -0.1576731428     0.2085681148     2.3256773866
$end
--------------------------------------------------------------
 ----------------------------------------------------------------
             Standard Nuclear Orientation (Angstroms)
    I     Atom           X                Y                Z
 ----------------------------------------------------------------
    1      N       0.6588757752     1.2473843580     2.4838262547
    2      O       0.3412670917     2.2090041638     1.8267901825
    3      O       1.5836989782     0.9182156163     3.1438861304
    4      N       0.0502176611    -1.1366921406     3.1605452029
    5      O      -0.5313952333    -1.3514910025     4.1595747328
    6      O      -0.1576731428     0.2085681148     2.3256773866
 ----------------------------------------------------------------
 Nuclear Repulsion Energy =         234.27101328 hartrees
 There are       24 alpha and       22 beta electrons
 Requested basis set is 6-311+G(2df,2pd)
 There are 48 shells and 204 basis functions

 Total QAlloc Memory Limit   2000 MB
 Mega-Array Size       188 MB
 MEM_STATIC part       192 MB

                       Distance Matrix (Angstroms)
             N (  1)   O (  2)   O (  3)   N (  4)   O (  5)
   O (  2)  1.207180
   O (  3)  1.182932  2.223626
   N (  4)  2.551908  3.613488  2.564077
   O (  5)  3.313462  4.345175  3.264478  1.175786
   O (  6)  1.330753  2.121220  2.050717  1.596856  2.436520
 
 A cutoff of  1.0D-09 yielded   1026 shell pairs
 There are     19131 function pairs (     25069 Cartesian)
 Smallest overlap matrix eigenvalue = 6.57E-04

 Scale SEOQF with 1.000000e-01/1.000000e-01/1.000000e-01

 Standard Electronic Orientation quadrupole field applied
 Nucleus-field energy     =    -0.0000000362 hartrees
 Requested basis set is 6-31G(d)
 There are 24 shells and 84 basis functions
 A cutoff of  1.0D-09 yielded    269 shell pairs
 There are      3538 function pairs (      4066 Cartesian)
 Smallest overlap matrix eigenvalue = 4.26E-03
 Guess from superposition of atomic densities
 Warning:  Energy on first SCF cycle will be non-variational
 SAD guess density has 46.000000 electrons
 Long-range K will be added via erf
 Coulomb attenuation parameter = 0.2 bohr**(-1)
 An unrestricted hybrid HF-DFT SCF calculation will be
 performed using Relaxed Constraint Minimization + Pulay DIIS
 Exchange:     0.2220 Hartree-Fock + 1.0000 wB97X-D + LR-HF
 Correlation:  1.0000 wB97X-D
 Using Euler-Maclaurin-Lebedev (75,302) quadrature formula
 Dispersion:   Grimme D
 SCF converges when DIIS error is below 1.0E-04
 using 6 threads for integral computing
 -------------------------------------------------------
 OpenMP Integral computing Module                
 Release: version 1.0, May 2013, Q-Chem Inc. Pittsburgh 
 -------------------------------------------------------
 using 6 threads for integral computing
 -------------------------------------------------------
 OpenMP Integral computing Module                
 Release: version 1.0, May 2013, Q-Chem Inc. Pittsburgh 
 -------------------------------------------------------
 ---------------------------------------
  Cycle       Energy         DIIS Error
 ---------------------------------------
    1    -411.1717800801      9.05E-02
    2    -409.6341870380      1.98E-02
    3    -409.7404124125      4.65E-03
    4    -409.8935046936      4.78E-03
    5    -409.8998940469      6.07E-04 Done RCA. Switching to DIIS
    6    -409.9081737587      4.82E-04
    7    -409.9084703582      1.92E-04
    8    -409.9085566354      6.35E-05 Convergence criterion met
 ---------------------------------------
 <S^2> = 2.0151
 SCF time:  CPU 14.26 s  wall 2.39 s
 SCF   energy in the small basis set = -409.90855664
 Total energy in the small basis set = -409.90855664
 ----------------------------------------------------
  Cycle       Energy    
 ----------------------------------------------------
    1     -41.8019961093     -4.18E+01
 Long-range K will be added via erf
 Coulomb attenuation parameter = 0.2 bohr**(-1)
 An unrestricted hybrid HF-DFT SCF calculation will be
 performed using Relaxed Constraint Minimization + Pulay DIIS
 Exchange:     0.2220 Hartree-Fock + 1.0000 wB97X-D + LR-HF
 Correlation:  1.0000 wB97X-D
 Using Euler-Maclaurin-Lebedev (75,302) quadrature formula
 Dispersion:   Grimme D
 SCF converges when DIIS error is below 1.0E-05
 Basis2 calculation detected. Using small basis as guess for larger.
 SCFMinFind is unable to tell whether the solution found is close.
 Resetting ReadMinima to 0 and attempting to follow guess.
 SCFMinFind following SCF Guess.
 using 6 threads for integral computing
 -------------------------------------------------------
 OpenMP Integral computing Module                
 Release: version 1.0, May 2013, Q-Chem Inc. Pittsburgh 
 -------------------------------------------------------
 using 6 threads for integral computing
 -------------------------------------------------------
 OpenMP Integral computing Module                
 Release: version 1.0, May 2013, Q-Chem Inc. Pittsburgh 
 -------------------------------------------------------
 ---------------------------------------
  Cycle       Energy         DIIS Error
 ---------------------------------------
    1    -409.9930499138      8.06E-03
    2    -409.9993684043      4.38E-03
    3    -410.0229480548      1.28E-03
    4    -410.0571168821      1.28E-03
    5    -410.0598620657      1.73E-04 Done RCA. Switching to DIIS
    6    -410.0638226948      1.83E-04
    7    -410.0640485736      5.72E-05
    8    -410.0641740275      2.70E-05
    9    -410.0642158132      1.40E-05
   10    -410.0642289701      6.56E-06 Convergence criterion met
 ---------------------------------------
 <S^2> = 2.0175
 SCF time:  CPU 64.32 s  wall 10.75 s
 SCF   energy in the final basis set = -410.06422897
 Total energy in the final basis set = -410.06422897
 
 --------------------------------------------------------------
 
                    Orbital Energies (a.u.)
 --------------------------------------------------------------
 
 Alpha MOs
 -- Occupied --
-19.4127 -19.4010 -19.3525 -19.3368 -14.7776 -14.6265  -1.4599  -1.3669
 -1.2614  -1.2255  -0.9046  -0.7716  -0.7303  -0.7216  -0.6891  -0.6569
 -0.6341  -0.6227  -0.5045  -0.4987  -0.4635  -0.4570  -0.4364  -0.3454
 -- Virtual --
 -0.0257   0.0109   0.0867   0.1177   0.1327   0.1374   0.1677   0.1738
  0.1844   0.2011   0.2257   0.2417   0.2481   0.2593   0.2702   0.2880
  0.3048   0.3203   0.3309   0.3462   0.3502   0.3667   0.3731   0.3916
  0.3994   0.4317   0.4490   0.4679   0.4862   0.5360   0.7512   0.7932
  0.7991   0.8225   0.8465   0.8725   0.9273   0.9433   0.9675   1.0062
  1.0153   1.0364   1.0518   1.0735   1.0854   1.0963   1.1187   1.1298
  1.1439   1.1592   1.1662   1.1861   1.2141   1.2561   1.2849   1.3418
  1.4484   1.4998   1.5107   1.5509   1.5682   1.5973   1.6101   1.6313
  1.6496   1.6643   1.6896   1.7751   1.8471   1.8972   1.9453   1.9602
  2.0674   2.1267   2.1821   2.2488   2.3532   2.3941   2.4750   2.4907
  2.5343   2.5791   2.7269   2.8196   3.4956   3.5245   3.5965   3.6122
  3.6535   3.6601   3.6837   3.7170   3.7474   3.7665   3.7997   3.9117
  3.9523   4.0050   4.0272   4.1565   4.2134   4.3780   4.4682   4.4981
  4.5176   4.5909   4.6452   4.6587   4.6864   4.7044   4.7453   4.7900
  4.8248   4.9173   4.9940   5.0002   5.0258   5.0309   5.0452   5.0508
  5.0770   5.0809   5.0912   5.1135   5.1198   5.1415   5.1612   5.1628
  5.2462   5.2677   5.3146   5.3888   5.4125   5.4276   5.4808   5.5173
  5.5784   5.5902   5.6713   5.7185   5.8606   6.0420   6.0927   6.2877
  6.4004   6.5030   6.6164   6.6767   6.7203   6.7353   6.7519   6.7752
  6.8161   6.8292   6.8648   6.9270   6.9900   7.0947   7.1305   7.1492
  7.1769   7.2090   7.2300   7.2398   7.2917   7.3516   7.4337   7.5279
  7.6827   7.7600   7.8191   7.9117   8.0151   8.3914  35.8929  36.1537
 50.0243  50.1544  50.2280  50.2805
 
 Beta MOs
 -- Occupied --
-19.4004 -19.3828 -19.3502 -19.3369 -14.7774 -14.6077  -1.4527  -1.3280
 -1.2577  -1.1984  -0.8614  -0.7388  -0.7256  -0.7057  -0.6747  -0.6010
 -0.5847  -0.5535  -0.4809  -0.4686  -0.4616  -0.4403
 -- Virtual --
 -0.1562  -0.0229  -0.0092   0.0600   0.0905   0.1214   0.1364   0.1411
  0.1694   0.1785   0.1883   0.2177   0.2272   0.2459   0.2519   0.2616
  0.2734   0.2901   0.3123   0.3218   0.3323   0.3481   0.3518   0.3690
  0.3763   0.4011   0.4066   0.4369   0.4535   0.4708   0.5037   0.5419
  0.7614   0.8018   0.8098   0.8429   0.8559   0.8848   0.9359   0.9474
  0.9785   1.0154   1.0260   1.0419   1.0669   1.0903   1.0978   1.1072
  1.1375   1.1384   1.1558   1.1694   1.1708   1.1954   1.2257   1.2677
  1.2951   1.3585   1.4631   1.5113   1.5195   1.5558   1.5748   1.6057
  1.6277   1.6458   1.6676   1.6713   1.7176   1.7787   1.8574   1.9021
  1.9619   1.9724   2.0807   2.1386   2.1986   2.2609   2.3675   2.4013
  2.4873   2.5024   2.5416   2.5819   2.7381   2.8234   3.5257   3.5583
  3.6114   3.6302   3.6586   3.6733   3.6990   3.7309   3.7587   3.8061
  3.8618   3.9280   3.9831   4.0217   4.0337   4.1680   4.2251   4.3818
  4.4748   4.5046   4.5219   4.6147   4.6496   4.7026   4.7192   4.7260
  4.7683   4.8206   4.8803   4.9661   5.0134   5.0189   5.0481   5.0519
  5.0596   5.0691   5.0865   5.1034   5.1081   5.1245   5.1319   5.1635
  5.1831   5.1986   5.2597   5.2889   5.3280   5.3983   5.4328   5.4355
  5.5035   5.5358   5.5977   5.6082   5.6918   5.7278   5.8651   6.0505
  6.1166   6.3041   6.4159   6.5084   6.6608   6.7104   6.7517   6.7775
  6.7929   6.8064   6.8207   6.8380   6.8692   6.9545   6.9967   7.1163
  7.1521   7.1637   7.2089   7.2137   7.2421   7.2642   7.2974   7.3767
  7.4562   7.5376   7.7124   7.7671   7.8371   7.9294   8.0252   8.3941
 35.9156  36.1541  50.0363  50.1715  50.2304  50.2809
 --------------------------------------------------------------
 
 -----------------------------------------------------------------
                    Cartesian Multipole Moments
 -----------------------------------------------------------------
    Charge (ESU x 10^10)
                -0.0000
    Dipole Moment (Debye)
         X      -0.3840      Y      -0.8341      Z       0.1136
       Tot       0.9252
    Quadrupole Moments (Debye-Ang)
        XX     -33.4922     XY      -1.1877     YY     -33.5390
        XZ      -2.2429     YZ      -0.8454     ZZ     -31.8335
    Octopole Moments (Debye-Ang^2)
       XXX     -34.7955    XXY     -13.4161    XYY     -11.5585
       YYY     -42.0413    XXZ     -97.2190    XYZ      -4.8009
       YYZ     -91.8748    XZZ     -18.9629    YZZ      -9.6143
       ZZZ    -274.8347
    Hexadecapole Moments (Debye-Ang^3)
      XXXX    -138.2436   XXXY     -62.5662   XXYY     -84.5484
      XYYY     -63.2371   YYYY    -369.5628   XXXZ     -90.9016
      XXYZ     -15.1961   XYYZ     -28.3485   YYYZ     -37.8003
      XXZZ    -324.7540   XYZZ     -37.5626   YYZZ    -336.0556
      XZZZ    -106.1214   YZZZ      -5.3479   ZZZZ   -1701.6540
 -----------------------------------------------------------------
Archival summary:
1\1\centos77-c5\SP\ProcedureUnspecified\BasisUnspecified\42(3)\shihchen\MonJul1315:37:282020MonJul1315:37:282020\0\\#,ProcedureUnspecified,BasisUnspecified,\\0,3\N\O,1,1.18293\O,1,1.20718,2,136.975\O,1,1.33075,2,109.196,3,170.795,0\N,4,1.59686,1,121.039,2,9.75958,0\O,5,1.17579,4,122.258,1,95.5404,0\\\@

 Total job time:  15.50s(wall), 82.94s(cpu) 
 Mon Jul 13 15:37:28 2020

        *************************************************************
        *                                                           *
        *  Thank you very much for using Q-Chem.  Have a nice day.  *
        *                                                           *
        *************************************************************


