                  Welcome to Q-Chem
     A Quantum Leap Into The Future Of Chemistry


 Q-Chem 5.3 (devel), Q-Chem, Inc., Pleasanton, CA (2020)

 Yihan Shao,  Zhengting Gan,  E. Epifanovsky,  A. T. B. Gilbert,  M. Wormit,  
 J. Kussmann,  A. W. Lange,  A. Behn,  Jia Deng,  Xintian Feng,  D. Ghosh,  
 M. Goldey,  P. R. Horn,  L. D. Jacobson,  I. Kaliman,  T. Kus,  A. Landau,  
 Jie Liu,  E. I. Proynov,  R. M. Richard,  R. P. Steele,  E. J. Sundstrom,  
 H. L. Woodcock III,  P. M. Zimmerman,  D. Zuev,  B. Alam,  B. Albrecht,  
 E. Alguire,  S. A. Baeppler,  D. Barton,  Z. Benda,  Y. A. Bernard,  
 E. J. Berquist,  K. B. Bravaya,  H. Burton,  K. Carter-Fenk,  D. Casanova,  
 Chun-Min Chang,  Yunqing Chen,  A. Chien,  K. D. Closser,  M. P. Coons,  
 S. Coriani,  S. Dasgupta,  A. L. Dempwolff,  M. Diedenhofen,  Hainam Do,  
 R. G. Edgar,  Po-Tung Fang,  S. Faraji,  S. Fatehi,  Qingguo Feng,  
 J. Fosso-Tande,  J. Gayvert,  Qinghui Ge,  A. Ghysels,  G. Gidofalvi,  
 J. Gomes,  J. Gonthier,  A. Gunina,  D. Hait,  M. W. D. Hanson-Heine,  
 P. H. P. Harbach,  A. W. Hauser,  M. F. Herbst,  J. E. Herr,  
 E. G. Hohenstein,  Z. C. Holden,  Kerwin Hui,  B. C. Huynh,  T.-C. Jagau,  
 Hyunjun Ji,  B. Kaduk,  K. Khistyaev,  Jaehoon Kim,  P. Klunzinger,  K. Koh,  
 D. Kosenkov,  L. Koulias,  T. Kowalczyk,  C. M. Krauter,  A. Kunitsa,  
 Ka Un Lao,  A. Laurent,  K. V. Lawler,  Joonho Lee,  D. Lefrancois,  
 S. Lehtola,  D. S. Levine,  Yi-Pei Li,  You-Sheng Lin,  Fenglai Liu,  
 Kuan-Yu Liu,  E. Livshits,  M. Loipersberger,  A. Luenser,  P. Manohar,  
 E. Mansoor,  S. F. Manzer,  Shan-Ping Mao,  Yuezhi Mao,  N. Mardirossian,  
 A. V. Marenich,  T. Markovich,  L. A. Martinez-Martinez,  S. A. Maurer,  
 N. J. Mayhall,  S. C. McKenzie,  J.-M. Mewes,  P. Morgante,  A. F. Morrison,  
 J. W. Mullinax,  K. Nanda,  T. S. Nguyen-Beck,  R. Olivares-Amaya,  
 K. J. Oosterbaan,  J. A. Parkhill,  S. K. Paul,  F. Pavosevic,  Zheng Pei,  
 T. M. Perrine,  F. Plasser,  P. Pokhilko,  S. Prager,  A. Prociuk,  
 E. Ramos,  B. Rana,  D. R. Rehn,  F. Rob,  M. Scheurer,  M. Schneider,  
 N. Sergueev,  S. M. Sharada,  S. Sharma,  D. W. Small,  T. Stauch,  
 C. J. Stein,  T. Stein,  Yu-Chuan Su,  S. P. Veccham,  Zhen Tao,  
 A. J. W. Thom,  A. Tkatchenko,  T. Tsuchimochi,  N. M. Tubman,  L. Vogt,  
 M. L. Vidal,  O. Vydrov,  M. A. Watson,  J. Wenzel,  M. de Wergifosse,  
 T. A. Wesolowski,  A. White,  J. Witte,  A. Yamada,  Jun Yang,  K. Yao,  
 S. Yeganeh,  S. R. Yost,  Zhi-Qiang You,  A. Zech,  Igor Ying Zhang,  
 Xing Zhang,  Yan Zhao,  Ying Zhu,  B. R. Brooks,  G. K. L. Chan,  
 C. J. Cramer,  M. S. Gordon,  W. J. Hehre,  A. Klamt,  M. W. Schmidt,  
 C. D. Sherrill,  D. G. Truhlar,  A. Aspuru-Guzik,  R. Baer,  A. T. Bell,  
 N. A. Besley,  Jeng-Da Chai,  A. E. DePrince, III,  R. A. DiStasio Jr.,  
 A. Dreuw,  B. D. Dunietz,  T. R. Furlani,  Chao-Ping Hsu,  Yousung Jung,  
 Jing Kong,  D. S. Lambrecht,  WanZhen Liang,  C. Ochsenfeld,  
 V. A. Rassolov,  L. V. Slipchenko,  J. E. Subotnik,  T. Van Voorhis,  
 J. M. Herbert,  A. I. Krylov,  P. M. W. Gill,  M. Head-Gordon

 Contributors to earlier versions of Q-Chem not listed above: 
 R. D. Adamson,  B. Austin,  J. Baker,  G. J. O. Beran,  K. Brandhorst,  
 S. T. Brown,  E. F. C. Byrd,  A. K. Chakraborty,  C.-L. Cheng,  
 Siu Hung Chien,  D. M. Chipman,  D. L. Crittenden,  H. Dachsel,  
 R. J. Doerksen,  A. D. Dutoi,  L. Fusti-Molnar,  W. A. Goddard III,  
 A. Golubeva-Zadorozhnaya,  S. R. Gwaltney,  G. Hawkins,  A. Heyden,  
 S. Hirata,  G. Kedziora,  F. J. Keil,  C. Kelley,  Jihan Kim,  R. A. King,  
 R. Z. Khaliullin,  P. P. Korambath,  W. Kurlancheek,  A. M. Lee,  M. S. Lee,  
 S. V. Levchenko,  Ching Yeh Lin,  D. Liotard,  R. C. Lochan,  I. Lotan,  
 P. E. Maslen,  N. Nair,  D. P. O'Neill,  D. Neuhauser,  E. Neuscamman,  
 C. M. Oana,  R. Olson,  B. Peters,  R. Peverati,  P. A. Pieniazek,  
 Y. M. Rhee,  J. Ritchie,  M. A. Rohrdanz,  E. Rosta,  N. J. Russ,  
 H. F. Schaefer III,  N. E. Schultz,  N. Shenvi,  A. C. Simmonett,  A. Sodt,  
 D. Stuck,  K. S. Thanthiriwatte,  V. Vanovschi,  Tao Wang,  A. Warshel,  
 C. F. Williams,  Q. Wu,  X. Xu,  W. Zhang

 Please cite Q-Chem as follows:
 Y. Shao et al., Mol. Phys. 113, 184-215 (2015)
 DOI: 10.1080/00268976.2014.952696

 Q-Chem 5.3.0 for Intel X86 EM64T Linux

 Parts of Q-Chem use Armadillo 9.800.1 (Horizon Scraper).
 http://arma.sourceforge.net/

 Q-Chem begins on Mon Jul 13 15:31:58 2020  

Host: centos77-c5
0

     Scratch files written to /tmp/29025.centos77-h1/qchem118255//
Processing $rem in /opt/qchem-5.3.0-intel2020u1//config/preferences:
Processing $rem in /home/shihchengli/.qchemrc:

Checking the input file for inconsistencies... 	...done.

--------------------------------------------------------------
User input:
--------------------------------------------------------------
$rem
   JOBTYPE  sp
   EXCHANGE   omegaB97X-D
   BASIS   6-311+G(2df,2pd)
   UNRESTRICTED   True
   max_scf_cycles   250
   geom_opt_max_cycles   1500
   basis2 6-31G*
   scf_algorithm rca_diis
   SYM_IGNORE  TRUE
   print_input   true
   geom_opt_dmax   80
   pop_mulliken false
   XC_GRID 000075000302
$end

$molecule
0 3
N       0.7033202499     1.2968041278     2.4280992272
O       0.5920431751     2.2313165113     1.7251434380
O       1.4900106725     1.0252246368     3.2603845480
N       -0.1837496486     -0.9754184251     3.2553655641
O       -0.2730039954     -1.6616728547     4.2020925743
O       -0.3836293235     0.1787351139     2.2292145385
$end
--------------------------------------------------------------
 ----------------------------------------------------------------
             Standard Nuclear Orientation (Angstroms)
    I     Atom           X                Y                Z
 ----------------------------------------------------------------
    1      N       0.7033202499     1.2968041278     2.4280992272
    2      O       0.5920431751     2.2313165113     1.7251434380
    3      O       1.4900106725     1.0252246368     3.2603845480
    4      N      -0.1837496486    -0.9754184251     3.2553655641
    5      O      -0.2730039954    -1.6616728547     4.2020925743
    6      O      -0.3836293235     0.1787351139     2.2292145385
 ----------------------------------------------------------------
 Nuclear Repulsion Energy =         226.29952827 hartrees
 There are       24 alpha and       22 beta electrons
 Requested basis set is 6-311+G(2df,2pd)
 There are 48 shells and 204 basis functions

 Total QAlloc Memory Limit   2000 MB
 Mega-Array Size       188 MB
 MEM_STATIC part       192 MB

                       Distance Matrix (Angstroms)
             N (  1)   O (  2)   O (  3)   N (  4)   O (  5)
   O (  2)  1.174667
   O (  3)  1.177003  2.148946
   N (  4)  2.575705  3.636837  2.608462
   O (  5)  3.585087  4.694566  3.348799  1.172691
   O (  6)  1.571971  2.327899  2.300083  1.557244  2.700294
 
 A cutoff of  1.0D-09 yielded   1015 shell pairs
 There are     18895 function pairs (     24773 Cartesian)
 Smallest overlap matrix eigenvalue = 6.55E-04

 Scale SEOQF with 1.000000e-01/1.000000e-01/1.000000e-01

 Standard Electronic Orientation quadrupole field applied
 Nucleus-field energy     =    -0.0000000361 hartrees
 Requested basis set is 6-31G(d)
 There are 24 shells and 84 basis functions
 A cutoff of  1.0D-09 yielded    262 shell pairs
 There are      3485 function pairs (      4009 Cartesian)
 Smallest overlap matrix eigenvalue = 5.24E-03
 Guess from superposition of atomic densities
 Warning:  Energy on first SCF cycle will be non-variational
 SAD guess density has 46.000000 electrons
 Long-range K will be added via erf
 Coulomb attenuation parameter = 0.2 bohr**(-1)
 An unrestricted hybrid HF-DFT SCF calculation will be
 performed using Relaxed Constraint Minimization + Pulay DIIS
 Exchange:     0.2220 Hartree-Fock + 1.0000 wB97X-D + LR-HF
 Correlation:  1.0000 wB97X-D
 Using Euler-Maclaurin-Lebedev (75,302) quadrature formula
 Dispersion:   Grimme D
 SCF converges when DIIS error is below 1.0E-04
 using 6 threads for integral computing
 -------------------------------------------------------
 OpenMP Integral computing Module                
 Release: version 1.0, May 2013, Q-Chem Inc. Pittsburgh 
 -------------------------------------------------------
 using 6 threads for integral computing
 -------------------------------------------------------
 OpenMP Integral computing Module                
 Release: version 1.0, May 2013, Q-Chem Inc. Pittsburgh 
 -------------------------------------------------------
 ---------------------------------------
  Cycle       Energy         DIIS Error
 ---------------------------------------
    1    -410.9550075012      8.72E-02
    2    -409.6286305975      1.90E-02
    3    -409.7297480550      4.10E-03
    4    -409.8704576786      4.49E-03
    5    -409.8762536611      8.11E-04 Done RCA. Switching to DIIS
    6    -409.8842931793      8.55E-04
    7    -409.8849502889      1.68E-04
    8    -409.8850508571      1.01E-04
    9    -409.8851204806      5.43E-05 Convergence criterion met
 ---------------------------------------
 <S^2> = 2.0139
 SCF time:  CPU 15.35 s  wall 2.57 s
 SCF   energy in the small basis set = -409.88512048
 Total energy in the small basis set = -409.88512048
 ----------------------------------------------------
  Cycle       Energy    
 ----------------------------------------------------
    1     -41.7318710509     -4.17E+01
 Long-range K will be added via erf
 Coulomb attenuation parameter = 0.2 bohr**(-1)
 An unrestricted hybrid HF-DFT SCF calculation will be
 performed using Relaxed Constraint Minimization + Pulay DIIS
 Exchange:     0.2220 Hartree-Fock + 1.0000 wB97X-D + LR-HF
 Correlation:  1.0000 wB97X-D
 Using Euler-Maclaurin-Lebedev (75,302) quadrature formula
 Dispersion:   Grimme D
 SCF converges when DIIS error is below 1.0E-05
 Basis2 calculation detected. Using small basis as guess for larger.
 SCFMinFind is unable to tell whether the solution found is close.
 Resetting ReadMinima to 0 and attempting to follow guess.
 SCFMinFind following SCF Guess.
 using 6 threads for integral computing
 -------------------------------------------------------
 OpenMP Integral computing Module                
 Release: version 1.0, May 2013, Q-Chem Inc. Pittsburgh 
 -------------------------------------------------------
 using 6 threads for integral computing
 -------------------------------------------------------
 OpenMP Integral computing Module                
 Release: version 1.0, May 2013, Q-Chem Inc. Pittsburgh 
 -------------------------------------------------------
 ---------------------------------------
  Cycle       Energy         DIIS Error
 ---------------------------------------
    1    -409.9769881507      8.02E-03
    2    -409.9879381099      4.04E-03
    3    -410.0091783017      9.13E-04 Done RCA. Switching to DIIS
    4    -410.0375505857      9.63E-04
    5    -410.0405821334      2.36E-04
    6    -410.0408664725      5.05E-05
    7    -410.0409463778      4.30E-05
    8    -410.0409735071      1.75E-05
    9    -410.0409927374      1.25E-05
   10    -410.0409989990      7.64E-06 Convergence criterion met
 ---------------------------------------
 <S^2> = 2.0146
 SCF time:  CPU 58.52 s  wall 9.78 s
 SCF   energy in the final basis set = -410.04099900
 Total energy in the final basis set = -410.04099900
 
 --------------------------------------------------------------
 
                    Orbital Energies (a.u.)
 --------------------------------------------------------------
 
 Alpha MOs
 -- Occupied --
-19.3978 -19.3857 -19.3602 -19.3512 -14.7621 -14.6307  -1.4369  -1.3612
 -1.2651  -1.1796  -0.8694  -0.7707  -0.7192  -0.7094  -0.6797  -0.6604
 -0.6352  -0.6315  -0.4862  -0.4839  -0.4694  -0.4529  -0.3742  -0.3405
 -- Virtual --
 -0.0491  -0.0154   0.0263   0.0915   0.1146   0.1366   0.1416   0.1654
  0.1779   0.1951   0.2336   0.2506   0.2524   0.2587   0.2793   0.2965
  0.3183   0.3306   0.3357   0.3462   0.3497   0.3572   0.3695   0.4058
  0.4328   0.4425   0.4476   0.4670   0.5127   0.5401   0.7452   0.7636
  0.7947   0.8594   0.8962   0.9081   0.9172   0.9519   0.9808   1.0075
  1.0234   1.0302   1.0671   1.0674   1.0814   1.1076   1.1141   1.1292
  1.1367   1.1416   1.1561   1.1827   1.2031   1.2220   1.2602   1.3567
  1.3754   1.4898   1.5234   1.5343   1.5669   1.5725   1.5895   1.6212
  1.6729   1.6901   1.7158   1.7488   1.7989   1.8276   1.8995   1.9193
  2.0215   2.1443   2.2311   2.2472   2.3914   2.3944   2.5192   2.5308
  2.5701   2.6486   2.7572   2.8207   3.4692   3.5085   3.5229   3.5408
  3.6167   3.6567   3.6621   3.7049   3.7512   3.7704   3.7887   3.8789
  3.9133   3.9387   4.0340   4.0357   4.1313   4.3710   4.4351   4.4654
  4.4663   4.5042   4.6593   4.6649   4.6933   4.7069   4.7231   4.7509
  4.7714   4.8642   5.0139   5.0265   5.0327   5.0339   5.0382   5.0421
  5.0519   5.0653   5.0924   5.1180   5.1320   5.1399   5.1603   5.1708
  5.2314   5.2707   5.3276   5.3626   5.3753   5.4106   5.4333   5.4507
  5.5354   5.5958   5.6305   5.6692   5.7031   5.7503   5.9525   6.0485
  6.2723   6.3594   6.5656   6.7137   6.7276   6.7280   6.7571   6.7855
  6.8030   6.8322   6.8848   6.9544   6.9808   7.0412   7.0934   7.1594
  7.1634   7.1678   7.1711   7.2609   7.2843   7.3498   7.4595   7.5639
  7.6437   7.7123   7.7522   7.8862   8.2281   8.3224  35.9272  36.1478
 50.0021  50.1980  50.2476  50.2650
 
 Beta MOs
 -- Occupied --
-19.3828 -19.3717 -19.3586 -19.3514 -14.7604 -14.6085  -1.4334  -1.3226
 -1.2627  -1.1396  -0.8231  -0.7442  -0.7067  -0.7032  -0.6730  -0.6119
 -0.5892  -0.5601  -0.4695  -0.4654  -0.4636  -0.4484
 -- Virtual --
 -0.0600  -0.0299  -0.0175   0.0086   0.0669   0.1004   0.1202   0.1413
  0.1452   0.1690   0.1826   0.1985   0.2361   0.2521   0.2549   0.2627
  0.2833   0.3005   0.3211   0.3321   0.3419   0.3491   0.3519   0.3611
  0.3742   0.4091   0.4361   0.4465   0.4514   0.4717   0.5364   0.5680
  0.7525   0.7788   0.8119   0.8806   0.9049   0.9157   0.9226   0.9632
  0.9981   1.0204   1.0379   1.0417   1.0686   1.0813   1.0982   1.1134
  1.1232   1.1368   1.1406   1.1530   1.1662   1.1926   1.2096   1.2344
  1.2729   1.3700   1.3833   1.5006   1.5287   1.5358   1.5706   1.5815
  1.6129   1.6426   1.6818   1.7020   1.7369   1.7584   1.8055   1.8359
  1.9041   1.9246   2.0443   2.1460   2.2494   2.2588   2.4024   2.4060
  2.5314   2.5408   2.5745   2.6624   2.7700   2.8368   3.4853   3.5533
  3.5725   3.5774   3.6293   3.6643   3.6689   3.7102   3.7566   3.8107
  3.8540   3.8964   3.9400   3.9541   4.0363   4.0585   4.1521   4.3942
  4.4426   4.4691   4.4725   4.5082   4.6814   4.6921   4.7492   4.7545
  4.7688   4.7924   4.8102   4.8868   5.0239   5.0341   5.0415   5.0445
  5.0582   5.0640   5.0652   5.0778   5.1034   5.1284   5.1505   5.1621
  5.1774   5.1864   5.2537   5.2970   5.3554   5.3727   5.3867   5.4198
  5.4374   5.4619   5.5535   5.6160   5.6421   5.6740   5.7161   5.7810
  5.9613   6.0921   6.2761   6.3733   6.5670   6.7563   6.7596   6.7772
  6.7799   6.7898   6.8214   6.8545   6.8865   6.9565   7.0039   7.0563
  7.1195   7.1631   7.1696   7.1915   7.2079   7.2699   7.3090   7.3530
  7.4923   7.5712   7.6699   7.7324   7.7578   7.8907   8.2573   8.3294
 35.9546  36.1500  50.0169  50.2095  50.2502  50.2663
 --------------------------------------------------------------
 
 -----------------------------------------------------------------
                    Cartesian Multipole Moments
 -----------------------------------------------------------------
    Charge (ESU x 10^10)
                -0.0000
    Dipole Moment (Debye)
         X      -0.1917      Y      -0.3656      Z       0.2283
       Tot       0.4717
    Quadrupole Moments (Debye-Ang)
        XX     -32.6365     XY      -0.7983     YY     -33.0311
        XZ      -2.0472     YZ       0.5092     ZZ     -31.5770
    Octopole Moments (Debye-Ang^2)
       XXX     -32.1204    XXY     -12.9572    XYY     -11.5553
       YYY     -38.1497    XXZ     -94.3765    XYZ      -3.2208
       YYZ     -91.5363    XZZ     -19.7056    YZZ      -5.5662
       ZZZ    -274.8388
    Hexadecapole Moments (Debye-Ang^3)
      XXXX    -132.4458   XXXY     -70.2125   XXYY     -88.3173
      XYYY     -74.0940   YYYY    -393.4390   XXXZ     -86.0320
      XXYZ     -10.2862   XYYZ     -28.5083   YYYZ     -14.2507
      XXZZ    -318.7086   XYZZ     -35.3305   YYZZ    -348.4042
      XZZZ    -115.2150   YZZZ      18.9798   ZZZZ   -1724.8110
 -----------------------------------------------------------------
Archival summary:
1\1\centos77-c5\SP\ProcedureUnspecified\BasisUnspecified\42(3)\shihchen\MonJul1315:32:122020MonJul1315:32:122020\0\\#,ProcedureUnspecified,BasisUnspecified,\\0,3\N\O,1,1.17467\O,1,1.177,2,132.071\O,1,1.57197,2,115.127,3,-179.331,0\N,4,1.55724,1,110.795,2,-177.187,0\O,5,1.17269,4,162.927,1,95.7149,0\\\@

 Total job time:  14.66s(wall), 78.14s(cpu) 
 Mon Jul 13 15:32:12 2020

        *************************************************************
        *                                                           *
        *  Thank you very much for using Q-Chem.  Have a nice day.  *
        *                                                           *
        *************************************************************


