                  Welcome to Q-Chem
     A Quantum Leap Into The Future Of Chemistry


 Q-Chem 5.3 (devel), Q-Chem, Inc., Pleasanton, CA (2020)

 Yihan Shao,  Zhengting Gan,  E. Epifanovsky,  A. T. B. Gilbert,  M. Wormit,  
 J. Kussmann,  A. W. Lange,  A. Behn,  Jia Deng,  Xintian Feng,  D. Ghosh,  
 M. Goldey,  P. R. Horn,  L. D. Jacobson,  I. Kaliman,  T. Kus,  A. Landau,  
 Jie Liu,  E. I. Proynov,  R. M. Richard,  R. P. Steele,  E. J. Sundstrom,  
 H. L. Woodcock III,  P. M. Zimmerman,  D. Zuev,  B. Alam,  B. Albrecht,  
 E. Alguire,  S. A. Baeppler,  D. Barton,  Z. Benda,  Y. A. Bernard,  
 E. J. Berquist,  K. B. Bravaya,  H. Burton,  K. Carter-Fenk,  D. Casanova,  
 Chun-Min Chang,  Yunqing Chen,  A. Chien,  K. D. Closser,  M. P. Coons,  
 S. Coriani,  S. Dasgupta,  A. L. Dempwolff,  M. Diedenhofen,  Hainam Do,  
 R. G. Edgar,  Po-Tung Fang,  S. Faraji,  S. Fatehi,  Qingguo Feng,  
 J. Fosso-Tande,  J. Gayvert,  Qinghui Ge,  A. Ghysels,  G. Gidofalvi,  
 J. Gomes,  J. Gonthier,  A. Gunina,  D. Hait,  M. W. D. Hanson-Heine,  
 P. H. P. Harbach,  A. W. Hauser,  M. F. Herbst,  J. E. Herr,  
 E. G. Hohenstein,  Z. C. Holden,  Kerwin Hui,  B. C. Huynh,  T.-C. Jagau,  
 Hyunjun Ji,  B. Kaduk,  K. Khistyaev,  Jaehoon Kim,  P. Klunzinger,  K. Koh,  
 D. Kosenkov,  L. Koulias,  T. Kowalczyk,  C. M. Krauter,  A. Kunitsa,  
 Ka Un Lao,  A. Laurent,  K. V. Lawler,  Joonho Lee,  D. Lefrancois,  
 S. Lehtola,  D. S. Levine,  Yi-Pei Li,  You-Sheng Lin,  Fenglai Liu,  
 Kuan-Yu Liu,  E. Livshits,  M. Loipersberger,  A. Luenser,  P. Manohar,  
 E. Mansoor,  S. F. Manzer,  Shan-Ping Mao,  Yuezhi Mao,  N. Mardirossian,  
 A. V. Marenich,  T. Markovich,  L. A. Martinez-Martinez,  S. A. Maurer,  
 N. J. Mayhall,  S. C. McKenzie,  J.-M. Mewes,  P. Morgante,  A. F. Morrison,  
 J. W. Mullinax,  K. Nanda,  T. S. Nguyen-Beck,  R. Olivares-Amaya,  
 K. J. Oosterbaan,  J. A. Parkhill,  S. K. Paul,  F. Pavosevic,  Zheng Pei,  
 T. M. Perrine,  F. Plasser,  P. Pokhilko,  S. Prager,  A. Prociuk,  
 E. Ramos,  B. Rana,  D. R. Rehn,  F. Rob,  M. Scheurer,  M. Schneider,  
 N. Sergueev,  S. M. Sharada,  S. Sharma,  D. W. Small,  T. Stauch,  
 C. J. Stein,  T. Stein,  Yu-Chuan Su,  S. P. Veccham,  Zhen Tao,  
 A. J. W. Thom,  A. Tkatchenko,  T. Tsuchimochi,  N. M. Tubman,  L. Vogt,  
 M. L. Vidal,  O. Vydrov,  M. A. Watson,  J. Wenzel,  M. de Wergifosse,  
 T. A. Wesolowski,  A. White,  J. Witte,  A. Yamada,  Jun Yang,  K. Yao,  
 S. Yeganeh,  S. R. Yost,  Zhi-Qiang You,  A. Zech,  Igor Ying Zhang,  
 Xing Zhang,  Yan Zhao,  Ying Zhu,  B. R. Brooks,  G. K. L. Chan,  
 C. J. Cramer,  M. S. Gordon,  W. J. Hehre,  A. Klamt,  M. W. Schmidt,  
 C. D. Sherrill,  D. G. Truhlar,  A. Aspuru-Guzik,  R. Baer,  A. T. Bell,  
 N. A. Besley,  Jeng-Da Chai,  A. E. DePrince, III,  R. A. DiStasio Jr.,  
 A. Dreuw,  B. D. Dunietz,  T. R. Furlani,  Chao-Ping Hsu,  Yousung Jung,  
 Jing Kong,  D. S. Lambrecht,  WanZhen Liang,  C. Ochsenfeld,  
 V. A. Rassolov,  L. V. Slipchenko,  J. E. Subotnik,  T. Van Voorhis,  
 J. M. Herbert,  A. I. Krylov,  P. M. W. Gill,  M. Head-Gordon

 Contributors to earlier versions of Q-Chem not listed above: 
 R. D. Adamson,  B. Austin,  J. Baker,  G. J. O. Beran,  K. Brandhorst,  
 S. T. Brown,  E. F. C. Byrd,  A. K. Chakraborty,  C.-L. Cheng,  
 Siu Hung Chien,  D. M. Chipman,  D. L. Crittenden,  H. Dachsel,  
 R. J. Doerksen,  A. D. Dutoi,  L. Fusti-Molnar,  W. A. Goddard III,  
 A. Golubeva-Zadorozhnaya,  S. R. Gwaltney,  G. Hawkins,  A. Heyden,  
 S. Hirata,  G. Kedziora,  F. J. Keil,  C. Kelley,  Jihan Kim,  R. A. King,  
 R. Z. Khaliullin,  P. P. Korambath,  W. Kurlancheek,  A. M. Lee,  M. S. Lee,  
 S. V. Levchenko,  Ching Yeh Lin,  D. Liotard,  R. C. Lochan,  I. Lotan,  
 P. E. Maslen,  N. Nair,  D. P. O'Neill,  D. Neuhauser,  E. Neuscamman,  
 C. M. Oana,  R. Olson,  B. Peters,  R. Peverati,  P. A. Pieniazek,  
 Y. M. Rhee,  J. Ritchie,  M. A. Rohrdanz,  E. Rosta,  N. J. Russ,  
 H. F. Schaefer III,  N. E. Schultz,  N. Shenvi,  A. C. Simmonett,  A. Sodt,  
 D. Stuck,  K. S. Thanthiriwatte,  V. Vanovschi,  Tao Wang,  A. Warshel,  
 C. F. Williams,  Q. Wu,  X. Xu,  W. Zhang

 Please cite Q-Chem as follows:
 Y. Shao et al., Mol. Phys. 113, 184-215 (2015)
 DOI: 10.1080/00268976.2014.952696

 Q-Chem 5.3.0 for Intel X86 EM64T Linux

 Parts of Q-Chem use Armadillo 9.800.1 (Horizon Scraper).
 http://arma.sourceforge.net/

 Q-Chem begins on Mon Jul 13 15:24:53 2020  

Host: centos77-c5
0

     Scratch files written to /tmp/29025.centos77-h1/qchem121449//
Processing $rem in /opt/qchem-5.3.0-intel2020u1//config/preferences:
Processing $rem in /home/shihchengli/.qchemrc:

Checking the input file for inconsistencies... 	...done.

--------------------------------------------------------------
User input:
--------------------------------------------------------------
$rem
   JOBTYPE  sp
   EXCHANGE   omegaB97X-D
   BASIS   6-311+G(2df,2pd)
   UNRESTRICTED   True
   max_scf_cycles   250
   geom_opt_max_cycles   1500
   basis2 6-31G*
   scf_algorithm rca_diis
   SYM_IGNORE  TRUE
   print_input   true
   geom_opt_dmax   80
   pop_mulliken false
   XC_GRID 000075000302
$end

$molecule
0 3
N       0.7285465182     1.2404791634     2.4792054389
O       0.3372034116     2.1641428949     1.8395670805
O       1.6880397448     1.0887092385     3.1528511416
N       -0.0236226558     -1.1991257861     3.1378181405
O       -0.5503676682     -1.3914250151     4.1672612573
O       -0.2348082206     0.1922086143     2.3235968313
$end
--------------------------------------------------------------
 ----------------------------------------------------------------
             Standard Nuclear Orientation (Angstroms)
    I     Atom           X                Y                Z
 ----------------------------------------------------------------
    1      N       0.7285465182     1.2404791634     2.4792054389
    2      O       0.3372034116     2.1641428949     1.8395670805
    3      O       1.6880397448     1.0887092385     3.1528511416
    4      N      -0.0236226558    -1.1991257861     3.1378181405
    5      O      -0.5503676682    -1.3914250151     4.1672612573
    6      O      -0.2348082206     0.1922086143     2.3235968313
 ----------------------------------------------------------------
 Nuclear Repulsion Energy =         229.18435202 hartrees
 There are       24 alpha and       22 beta electrons
 Requested basis set is 6-311+G(2df,2pd)
 There are 48 shells and 204 basis functions

 Total QAlloc Memory Limit   2000 MB
 Mega-Array Size       188 MB
 MEM_STATIC part       192 MB

                       Distance Matrix (Angstroms)
             N (  1)   O (  2)   O (  3)   N (  4)   O (  5)
   O (  2)  1.189723
   O (  3)  1.182142  2.169339
   N (  4)  2.636513  3.623152  2.857307
   O (  5)  3.378176  4.341429  3.491498  1.172260
   O (  6)  1.432179  2.109504  2.277876  1.625844  2.450831
 
 A cutoff of  1.0D-09 yielded   1014 shell pairs
 There are     18888 function pairs (     24763 Cartesian)
 Smallest overlap matrix eigenvalue = 7.59E-04

 Scale SEOQF with 1.000000e-01/1.000000e-01/1.000000e-01

 Standard Electronic Orientation quadrupole field applied
 Nucleus-field energy     =    -0.0000000359 hartrees
 Requested basis set is 6-31G(d)
 There are 24 shells and 84 basis functions
 A cutoff of  1.0D-09 yielded    265 shell pairs
 There are      3482 function pairs (      4006 Cartesian)
 Smallest overlap matrix eigenvalue = 4.87E-03
 Guess from superposition of atomic densities
 Warning:  Energy on first SCF cycle will be non-variational
 SAD guess density has 46.000000 electrons
 Long-range K will be added via erf
 Coulomb attenuation parameter = 0.2 bohr**(-1)
 An unrestricted hybrid HF-DFT SCF calculation will be
 performed using Relaxed Constraint Minimization + Pulay DIIS
 Exchange:     0.2220 Hartree-Fock + 1.0000 wB97X-D + LR-HF
 Correlation:  1.0000 wB97X-D
 Using Euler-Maclaurin-Lebedev (75,302) quadrature formula
 Dispersion:   Grimme D
 SCF converges when DIIS error is below 1.0E-04
 using 6 threads for integral computing
 -------------------------------------------------------
 OpenMP Integral computing Module                
 Release: version 1.0, May 2013, Q-Chem Inc. Pittsburgh 
 -------------------------------------------------------
 using 6 threads for integral computing
 -------------------------------------------------------
 OpenMP Integral computing Module                
 Release: version 1.0, May 2013, Q-Chem Inc. Pittsburgh 
 -------------------------------------------------------
 ---------------------------------------
  Cycle       Energy         DIIS Error
 ---------------------------------------
    1    -411.0186293459      8.81E-02
    2    -409.6586818752      1.94E-02
    3    -409.7618153781      4.43E-03
    4    -409.9090658761      4.69E-03
    5    -409.9152925901      6.55E-04 Done RCA. Switching to DIIS
    6    -409.9235961303      5.68E-04
    7    -409.9240111445      1.03E-04
    8    -409.9240901869      5.56E-05 Convergence criterion met
 ---------------------------------------
 <S^2> = 2.0158
 SCF time:  CPU 14.23 s  wall 2.39 s
 SCF   energy in the small basis set = -409.92409019
 Total energy in the small basis set = -409.92409019
 ----------------------------------------------------
  Cycle       Energy    
 ----------------------------------------------------
    1     -41.7479993978     -4.17E+01
 Long-range K will be added via erf
 Coulomb attenuation parameter = 0.2 bohr**(-1)
 An unrestricted hybrid HF-DFT SCF calculation will be
 performed using Relaxed Constraint Minimization + Pulay DIIS
 Exchange:     0.2220 Hartree-Fock + 1.0000 wB97X-D + LR-HF
 Correlation:  1.0000 wB97X-D
 Using Euler-Maclaurin-Lebedev (75,302) quadrature formula
 Dispersion:   Grimme D
 SCF converges when DIIS error is below 1.0E-05
 Basis2 calculation detected. Using small basis as guess for larger.
 SCFMinFind is unable to tell whether the solution found is close.
 Resetting ReadMinima to 0 and attempting to follow guess.
 SCFMinFind following SCF Guess.
 using 6 threads for integral computing
 -------------------------------------------------------
 OpenMP Integral computing Module                
 Release: version 1.0, May 2013, Q-Chem Inc. Pittsburgh 
 -------------------------------------------------------
 using 6 threads for integral computing
 -------------------------------------------------------
 OpenMP Integral computing Module                
 Release: version 1.0, May 2013, Q-Chem Inc. Pittsburgh 
 -------------------------------------------------------
 ---------------------------------------
  Cycle       Energy         DIIS Error
 ---------------------------------------
    1    -410.0125897803      8.03E-03
    2    -410.0194571633      4.26E-03
    3    -410.0416037700      1.21E-03
    4    -410.0731004212      1.19E-03
    5    -410.0755731079      1.45E-04 Done RCA. Switching to DIIS
    6    -410.0792473214      1.45E-04
    7    -410.0793933373      5.39E-05
    8    -410.0794655983      2.06E-05
    9    -410.0794888004      1.11E-05
   10    -410.0794965552      5.40E-06 Convergence criterion met
 ---------------------------------------
 <S^2> = 2.0181
 SCF time:  CPU 63.66 s  wall 10.64 s
 SCF   energy in the final basis set = -410.07949656
 Total energy in the final basis set = -410.07949656
 
 --------------------------------------------------------------
 
                    Orbital Energies (a.u.)
 --------------------------------------------------------------
 
 Alpha MOs
 -- Occupied --
-19.4086 -19.3975 -19.3535 -19.3528 -14.7751 -14.6207  -1.4452  -1.3653
 -1.2638  -1.2030  -0.8802  -0.7754  -0.7218  -0.7187  -0.6843  -0.6539
 -0.6312  -0.6274  -0.5058  -0.4955  -0.4673  -0.4630  -0.4350  -0.3405
 -- Virtual --
 -0.0259   0.0096   0.0765   0.1141   0.1227   0.1344   0.1375   0.1689
  0.1779   0.1858   0.2258   0.2418   0.2467   0.2619   0.2700   0.2875
  0.3022   0.3255   0.3386   0.3445   0.3515   0.3605   0.3705   0.3908
  0.3994   0.4319   0.4468   0.4616   0.4908   0.5265   0.7405   0.7664
  0.8023   0.8272   0.8710   0.8745   0.9314   0.9453   0.9845   1.0144
  1.0278   1.0490   1.0625   1.0702   1.0792   1.0913   1.1126   1.1210
  1.1430   1.1456   1.1560   1.1651   1.2259   1.2496   1.2609   1.3524
  1.4153   1.4855   1.5219   1.5414   1.5633   1.5738   1.5922   1.6170
  1.6309   1.6680   1.7143   1.7881   1.8215   1.8780   1.9168   1.9450
  1.9836   2.1170   2.1827   2.2367   2.3104   2.3754   2.4449   2.4930
  2.5367   2.5635   2.6706   2.7953   3.4924   3.5380   3.5962   3.6146
  3.6297   3.6569   3.6680   3.7151   3.7263   3.7740   3.7909   3.8889
  3.9508   3.9870   4.0195   4.0731   4.1140   4.4185   4.4509   4.4900
  4.5007   4.5845   4.6497   4.6632   4.6864   4.7188   4.7382   4.7890
  4.8191   4.9161   4.9963   5.0023   5.0227   5.0252   5.0383   5.0426
  5.0605   5.0760   5.0840   5.1005   5.1206   5.1449   5.1562   5.1673
  5.1992   5.2738   5.3147   5.3784   5.4001   5.4296   5.4558   5.5073
  5.5255   5.5447   5.6208   5.6625   5.8460   5.8475   5.9472   6.1402
  6.3885   6.5341   6.6364   6.6408   6.6946   6.7250   6.7406   6.7606
  6.7847   6.8183   6.8645   6.9152   6.9310   6.9760   7.0976   7.1046
  7.1605   7.1657   7.2026   7.2597   7.2739   7.3594   7.4230   7.5426
  7.6883   7.7091   7.8188   7.8368   7.9125   8.2765  35.9050  36.1189
 49.9762  50.1610  50.2318  50.2570
 
 Beta MOs
 -- Occupied --
-19.3960 -19.3794 -19.3533 -19.3509 -14.7748 -14.6027  -1.4408  -1.3267
 -1.2609  -1.1701  -0.8377  -0.7446  -0.7167  -0.7033  -0.6749  -0.5974
 -0.5812  -0.5559  -0.4782  -0.4722  -0.4642  -0.4501
 -- Virtual --
 -0.1480  -0.0233  -0.0113   0.0578   0.0868   0.1211   0.1348   0.1410
  0.1426   0.1714   0.1814   0.1902   0.2267   0.2460   0.2500   0.2633
  0.2723   0.2902   0.3099   0.3269   0.3395   0.3464   0.3534   0.3632
  0.3721   0.3984   0.4089   0.4375   0.4509   0.4649   0.5086   0.5322
  0.7508   0.7722   0.8163   0.8460   0.8777   0.8896   0.9342   0.9525
  0.9952   1.0258   1.0322   1.0635   1.0738   1.0876   1.0889   1.1016
  1.1237   1.1361   1.1515   1.1589   1.1683   1.1714   1.2390   1.2602
  1.2745   1.3630   1.4306   1.4992   1.5260   1.5464   1.5695   1.5850
  1.6075   1.6379   1.6514   1.6905   1.7205   1.7947   1.8291   1.8889
  1.9210   1.9627   1.9988   2.1311   2.1960   2.2488   2.3258   2.3844
  2.4578   2.5088   2.5389   2.5704   2.6789   2.7994   3.5172   3.5746
  3.6095   3.6316   3.6467   3.6591   3.6825   3.7264   3.7447   3.8041
  3.8556   3.9054   3.9776   4.0068   4.0216   4.0888   4.1283   4.4209
  4.4535   4.4930   4.5079   4.6147   4.6540   4.7060   4.7189   4.7366
  4.7670   4.8127   4.8738   4.9653   5.0132   5.0182   5.0402   5.0431
  5.0538   5.0655   5.0781   5.0883   5.0967   5.1239   5.1268   5.1598
  5.1955   5.1994   5.2111   5.2996   5.3319   5.3874   5.4128   5.4453
  5.4694   5.5322   5.5358   5.5655   5.6402   5.6812   5.8510   5.8536
  5.9667   6.1674   6.4053   6.5367   6.6572   6.6812   6.7230   6.7635
  6.7879   6.7948   6.8052   6.8256   6.8689   6.9167   6.9603   6.9924
  7.1136   7.1268   7.1640   7.2016   7.2289   7.2749   7.2890   7.3678
  7.4497   7.5494   7.7167   7.7323   7.8359   7.8482   7.9242   8.2791
 35.9268  36.1193  49.9894  50.1780  50.2343  50.2568
 --------------------------------------------------------------
 
 -----------------------------------------------------------------
                    Cartesian Multipole Moments
 -----------------------------------------------------------------
    Charge (ESU x 10^10)
                -0.0000
    Dipole Moment (Debye)
         X      -0.1323      Y      -0.6691      Z       0.0955
       Tot       0.6887
    Quadrupole Moments (Debye-Ang)
        XX     -33.1585     XY      -0.8311     YY     -33.2457
        XZ      -1.5349     YZ      -0.4811     ZZ     -32.0144
    Octopole Moments (Debye-Ang^2)
       XXX     -34.1411    XXY     -12.8531    XYY     -11.3682
       YYY     -40.7600    XXZ     -96.3747    XYZ      -3.7973
       YYZ     -91.3924    XZZ     -16.7496    YZZ      -8.4262
       ZZZ    -275.9166
    Hexadecapole Moments (Debye-Ang^3)
      XXXX    -151.6241   XXXY     -70.1220   XXYY     -88.4996
      XYYY     -71.3372   YYYY    -376.9763   XXXZ     -89.1119
      XXYZ     -14.0344   XYYZ     -27.9724   YYYZ     -36.2884
      XXZZ    -324.7694   XYZZ     -37.2867   YYZZ    -337.2710
      XZZZ     -98.7987   YZZZ      -1.5130   ZZZZ   -1706.7844
 -----------------------------------------------------------------
Archival summary:
1\1\centos77-c5\SP\ProcedureUnspecified\BasisUnspecified\42(3)\shihchen\MonJul1315:25:082020MonJul1315:25:082020\0\\#,ProcedureUnspecified,BasisUnspecified,\\0,3\N\O,1,1.18214\O,1,1.18972,2,132.301\O,1,1.43218,2,120.924,3,-179.541,0\N,4,1.62584,1,118.985,2,2.46093,0\O,5,1.17226,4,121.453,1,95.6949,0\\\@

 Total job time:  15.36s(wall), 82.00s(cpu) 
 Mon Jul 13 15:25:08 2020

        *************************************************************
        *                                                           *
        *  Thank you very much for using Q-Chem.  Have a nice day.  *
        *                                                           *
        *************************************************************


