                  Welcome to Q-Chem
     A Quantum Leap Into The Future Of Chemistry


 Q-Chem 5.3 (devel), Q-Chem, Inc., Pleasanton, CA (2020)

 Yihan Shao,  Zhengting Gan,  E. Epifanovsky,  A. T. B. Gilbert,  M. Wormit,  
 J. Kussmann,  A. W. Lange,  A. Behn,  Jia Deng,  Xintian Feng,  D. Ghosh,  
 M. Goldey,  P. R. Horn,  L. D. Jacobson,  I. Kaliman,  T. Kus,  A. Landau,  
 Jie Liu,  E. I. Proynov,  R. M. Richard,  R. P. Steele,  E. J. Sundstrom,  
 H. L. Woodcock III,  P. M. Zimmerman,  D. Zuev,  B. Alam,  B. Albrecht,  
 E. Alguire,  S. A. Baeppler,  D. Barton,  Z. Benda,  Y. A. Bernard,  
 E. J. Berquist,  K. B. Bravaya,  H. Burton,  K. Carter-Fenk,  D. Casanova,  
 Chun-Min Chang,  Yunqing Chen,  A. Chien,  K. D. Closser,  M. P. Coons,  
 S. Coriani,  S. Dasgupta,  A. L. Dempwolff,  M. Diedenhofen,  Hainam Do,  
 R. G. Edgar,  Po-Tung Fang,  S. Faraji,  S. Fatehi,  Qingguo Feng,  
 J. Fosso-Tande,  J. Gayvert,  Qinghui Ge,  A. Ghysels,  G. Gidofalvi,  
 J. Gomes,  J. Gonthier,  A. Gunina,  D. Hait,  M. W. D. Hanson-Heine,  
 P. H. P. Harbach,  A. W. Hauser,  M. F. Herbst,  J. E. Herr,  
 E. G. Hohenstein,  Z. C. Holden,  Kerwin Hui,  B. C. Huynh,  T.-C. Jagau,  
 Hyunjun Ji,  B. Kaduk,  K. Khistyaev,  Jaehoon Kim,  P. Klunzinger,  K. Koh,  
 D. Kosenkov,  L. Koulias,  T. Kowalczyk,  C. M. Krauter,  A. Kunitsa,  
 Ka Un Lao,  A. Laurent,  K. V. Lawler,  Joonho Lee,  D. Lefrancois,  
 S. Lehtola,  D. S. Levine,  Yi-Pei Li,  You-Sheng Lin,  Fenglai Liu,  
 Kuan-Yu Liu,  E. Livshits,  M. Loipersberger,  A. Luenser,  P. Manohar,  
 E. Mansoor,  S. F. Manzer,  Shan-Ping Mao,  Yuezhi Mao,  N. Mardirossian,  
 A. V. Marenich,  T. Markovich,  L. A. Martinez-Martinez,  S. A. Maurer,  
 N. J. Mayhall,  S. C. McKenzie,  J.-M. Mewes,  P. Morgante,  A. F. Morrison,  
 J. W. Mullinax,  K. Nanda,  T. S. Nguyen-Beck,  R. Olivares-Amaya,  
 K. J. Oosterbaan,  J. A. Parkhill,  S. K. Paul,  F. Pavosevic,  Zheng Pei,  
 T. M. Perrine,  F. Plasser,  P. Pokhilko,  S. Prager,  A. Prociuk,  
 E. Ramos,  B. Rana,  D. R. Rehn,  F. Rob,  M. Scheurer,  M. Schneider,  
 N. Sergueev,  S. M. Sharada,  S. Sharma,  D. W. Small,  T. Stauch,  
 C. J. Stein,  T. Stein,  Yu-Chuan Su,  S. P. Veccham,  Zhen Tao,  
 A. J. W. Thom,  A. Tkatchenko,  T. Tsuchimochi,  N. M. Tubman,  L. Vogt,  
 M. L. Vidal,  O. Vydrov,  M. A. Watson,  J. Wenzel,  M. de Wergifosse,  
 T. A. Wesolowski,  A. White,  J. Witte,  A. Yamada,  Jun Yang,  K. Yao,  
 S. Yeganeh,  S. R. Yost,  Zhi-Qiang You,  A. Zech,  Igor Ying Zhang,  
 Xing Zhang,  Yan Zhao,  Ying Zhu,  B. R. Brooks,  G. K. L. Chan,  
 C. J. Cramer,  M. S. Gordon,  W. J. Hehre,  A. Klamt,  M. W. Schmidt,  
 C. D. Sherrill,  D. G. Truhlar,  A. Aspuru-Guzik,  R. Baer,  A. T. Bell,  
 N. A. Besley,  Jeng-Da Chai,  A. E. DePrince, III,  R. A. DiStasio Jr.,  
 A. Dreuw,  B. D. Dunietz,  T. R. Furlani,  Chao-Ping Hsu,  Yousung Jung,  
 Jing Kong,  D. S. Lambrecht,  WanZhen Liang,  C. Ochsenfeld,  
 V. A. Rassolov,  L. V. Slipchenko,  J. E. Subotnik,  T. Van Voorhis,  
 J. M. Herbert,  A. I. Krylov,  P. M. W. Gill,  M. Head-Gordon

 Contributors to earlier versions of Q-Chem not listed above: 
 R. D. Adamson,  B. Austin,  J. Baker,  G. J. O. Beran,  K. Brandhorst,  
 S. T. Brown,  E. F. C. Byrd,  A. K. Chakraborty,  C.-L. Cheng,  
 Siu Hung Chien,  D. M. Chipman,  D. L. Crittenden,  H. Dachsel,  
 R. J. Doerksen,  A. D. Dutoi,  L. Fusti-Molnar,  W. A. Goddard III,  
 A. Golubeva-Zadorozhnaya,  S. R. Gwaltney,  G. Hawkins,  A. Heyden,  
 S. Hirata,  G. Kedziora,  F. J. Keil,  C. Kelley,  Jihan Kim,  R. A. King,  
 R. Z. Khaliullin,  P. P. Korambath,  W. Kurlancheek,  A. M. Lee,  M. S. Lee,  
 S. V. Levchenko,  Ching Yeh Lin,  D. Liotard,  R. C. Lochan,  I. Lotan,  
 P. E. Maslen,  N. Nair,  D. P. O'Neill,  D. Neuhauser,  E. Neuscamman,  
 C. M. Oana,  R. Olson,  B. Peters,  R. Peverati,  P. A. Pieniazek,  
 Y. M. Rhee,  J. Ritchie,  M. A. Rohrdanz,  E. Rosta,  N. J. Russ,  
 H. F. Schaefer III,  N. E. Schultz,  N. Shenvi,  A. C. Simmonett,  A. Sodt,  
 D. Stuck,  K. S. Thanthiriwatte,  V. Vanovschi,  Tao Wang,  A. Warshel,  
 C. F. Williams,  Q. Wu,  X. Xu,  W. Zhang

 Please cite Q-Chem as follows:
 Y. Shao et al., Mol. Phys. 113, 184-215 (2015)
 DOI: 10.1080/00268976.2014.952696

 Q-Chem 5.3.0 for Intel X86 EM64T Linux

 Parts of Q-Chem use Armadillo 9.800.1 (Horizon Scraper).
 http://arma.sourceforge.net/

 Q-Chem begins on Mon Jul 13 15:33:49 2020  

Host: centos77-c5
0

     Scratch files written to /tmp/29025.centos77-h1/qchem21233//
Processing $rem in /opt/qchem-5.3.0-intel2020u1//config/preferences:
Processing $rem in /home/shihchengli/.qchemrc:

Checking the input file for inconsistencies... 	...done.

--------------------------------------------------------------
User input:
--------------------------------------------------------------
$rem
   JOBTYPE  sp
   EXCHANGE   omegaB97X-D
   BASIS   6-311+G(2df,2pd)
   UNRESTRICTED   True
   max_scf_cycles   250
   geom_opt_max_cycles   1500
   basis2 6-31G*
   scf_algorithm rca_diis
   SYM_IGNORE  TRUE
   print_input   true
   geom_opt_dmax   80
   pop_mulliken false
   XC_GRID 000075000302
$end

$molecule
0 3
N       0.6958603903     1.1341335534     2.5123906298
O       0.2960257331     2.0287271036     1.8174039415
O       1.6256012669     0.9646176599     3.2484818047
N       -0.0116054819     -1.0138415206     3.1369810579
O       -0.4255287827     -1.3844870505     4.1516827806
O       -0.2353619956     0.3658393641     2.2333596755
$end
--------------------------------------------------------------
 ----------------------------------------------------------------
             Standard Nuclear Orientation (Angstroms)
    I     Atom           X                Y                Z
 ----------------------------------------------------------------
    1      N       0.6958603903     1.1341335534     2.5123906298
    2      O       0.2960257331     2.0287271036     1.8174039415
    3      O       1.6256012669     0.9646176599     3.2484818047
    4      N      -0.0116054819    -1.0138415206     3.1369810579
    5      O      -0.4255287827    -1.3844870505     4.1516827806
    6      O      -0.2353619956     0.3658393641     2.2333596755
 ----------------------------------------------------------------
 Nuclear Repulsion Energy =         238.43717012 hartrees
 There are       24 alpha and       22 beta electrons
 Requested basis set is 6-311+G(2df,2pd)
 There are 48 shells and 204 basis functions

 Total QAlloc Memory Limit   2000 MB
 Mega-Array Size       188 MB
 MEM_STATIC part       192 MB

                       Distance Matrix (Angstroms)
             N (  1)   O (  2)   O (  3)   N (  4)   O (  5)
   O (  2)  1.201321
   O (  3)  1.197908  2.224429
   N (  4)  2.346150  3.330637  2.570443
   O (  5)  3.207529  4.197562  3.246721  1.156862
   O (  6)  1.239076  1.794600  2.202769  1.664367  2.603799
 
 A cutoff of  1.0D-09 yielded   1038 shell pairs
 There are     19332 function pairs (     25359 Cartesian)
 Smallest overlap matrix eigenvalue = 5.33E-04

 Scale SEOQF with 1.000000e-01/1.000000e-01/1.000000e-01

 Standard Electronic Orientation quadrupole field applied
 Nucleus-field energy     =    -0.0000000369 hartrees
 Requested basis set is 6-31G(d)
 There are 24 shells and 84 basis functions
 A cutoff of  1.0D-09 yielded    267 shell pairs
 There are      3530 function pairs (      4058 Cartesian)
 Smallest overlap matrix eigenvalue = 4.05E-03
 Guess from superposition of atomic densities
 Warning:  Energy on first SCF cycle will be non-variational
 SAD guess density has 46.000000 electrons
 Long-range K will be added via erf
 Coulomb attenuation parameter = 0.2 bohr**(-1)
 An unrestricted hybrid HF-DFT SCF calculation will be
 performed using Relaxed Constraint Minimization + Pulay DIIS
 Exchange:     0.2220 Hartree-Fock + 1.0000 wB97X-D + LR-HF
 Correlation:  1.0000 wB97X-D
 Using Euler-Maclaurin-Lebedev (75,302) quadrature formula
 Dispersion:   Grimme D
 SCF converges when DIIS error is below 1.0E-04
 using 6 threads for integral computing
 -------------------------------------------------------
 OpenMP Integral computing Module                
 Release: version 1.0, May 2013, Q-Chem Inc. Pittsburgh 
 -------------------------------------------------------
 using 6 threads for integral computing
 -------------------------------------------------------
 OpenMP Integral computing Module                
 Release: version 1.0, May 2013, Q-Chem Inc. Pittsburgh 
 -------------------------------------------------------
 ---------------------------------------
  Cycle       Energy         DIIS Error
 ---------------------------------------
    1    -411.3942305596      9.56E-02
    2    -409.6135754828      1.97E-02
    3    -409.7169991129      4.81E-03
    4    -409.8673801356      4.87E-03
    5    -409.8740050500      5.78E-04 Done RCA. Switching to DIIS
    6    -409.8822871691      4.25E-04
    7    -409.8825229458      1.49E-04
    8    -409.8825915741      7.27E-05 Convergence criterion met
 ---------------------------------------
 <S^2> = 2.0143
 SCF time:  CPU 14.70 s  wall 2.46 s
 SCF   energy in the small basis set = -409.88259157
 Total energy in the small basis set = -409.88259157
 ----------------------------------------------------
  Cycle       Energy    
 ----------------------------------------------------
    1     -41.8743571967     -4.19E+01
 Long-range K will be added via erf
 Coulomb attenuation parameter = 0.2 bohr**(-1)
 An unrestricted hybrid HF-DFT SCF calculation will be
 performed using Relaxed Constraint Minimization + Pulay DIIS
 Exchange:     0.2220 Hartree-Fock + 1.0000 wB97X-D + LR-HF
 Correlation:  1.0000 wB97X-D
 Using Euler-Maclaurin-Lebedev (75,302) quadrature formula
 Dispersion:   Grimme D
 SCF converges when DIIS error is below 1.0E-05
 Basis2 calculation detected. Using small basis as guess for larger.
 SCFMinFind is unable to tell whether the solution found is close.
 Resetting ReadMinima to 0 and attempting to follow guess.
 SCFMinFind following SCF Guess.
 using 6 threads for integral computing
 -------------------------------------------------------
 OpenMP Integral computing Module                
 Release: version 1.0, May 2013, Q-Chem Inc. Pittsburgh 
 -------------------------------------------------------
 using 6 threads for integral computing
 -------------------------------------------------------
 OpenMP Integral computing Module                
 Release: version 1.0, May 2013, Q-Chem Inc. Pittsburgh 
 -------------------------------------------------------
 ---------------------------------------
  Cycle       Energy         DIIS Error
 ---------------------------------------
    1    -409.9787938509      7.99E-03
    2    -409.9885572576      3.91E-03
    3    -410.0073398948      1.15E-03
    4    -410.0337561817      1.06E-03
    5    -410.0358678697      1.38E-04 Done RCA. Switching to DIIS
    6    -410.0388587379      1.79E-04
    7    -410.0390058935      4.00E-05
    8    -410.0390439052      1.48E-05
    9    -410.0390552786      8.39E-06 Convergence criterion met
 ---------------------------------------
 <S^2> = 2.0163
 SCF time:  CPU 61.61 s  wall 10.30 s
 SCF   energy in the final basis set = -410.03905528
 Total energy in the final basis set = -410.03905528
 
 --------------------------------------------------------------
 
                    Orbital Energies (a.u.)
 --------------------------------------------------------------
 
 Alpha MOs
 -- Occupied --
-19.4175 -19.3855 -19.3531 -19.3486 -14.7850 -14.5960  -1.5065  -1.3608
 -1.2891  -1.2249  -0.8745  -0.7783  -0.7541  -0.7273  -0.7026  -0.6480
 -0.6284  -0.6198  -0.5215  -0.5047  -0.4684  -0.4644  -0.4030  -0.3241
 -- Virtual --
 -0.0280   0.0092   0.0823   0.1173   0.1331   0.1385   0.1677   0.1786
  0.1883   0.2199   0.2415   0.2442   0.2592   0.2641   0.2707   0.2927
  0.3098   0.3174   0.3229   0.3421   0.3509   0.3594   0.3814   0.3892
  0.4102   0.4318   0.4458   0.4801   0.5041   0.5423   0.7313   0.7621
  0.8035   0.8209   0.8601   0.8874   0.9395   0.9574   0.9728   1.0115
  1.0366   1.0497   1.0502   1.0805   1.0841   1.1052   1.1111   1.1362
  1.1369   1.1688   1.1772   1.1885   1.2157   1.2289   1.2372   1.3205
  1.4608   1.4796   1.5124   1.5550   1.5755   1.5823   1.6192   1.6301
  1.6535   1.6782   1.7297   1.7774   1.8080   1.9504   1.9650   2.0804
  2.1031   2.1596   2.2028   2.2563   2.3989   2.4515   2.5111   2.5257
  2.5541   2.6135   2.7446   2.7893   3.5290   3.5310   3.5910   3.6060
  3.6283   3.6724   3.6924   3.7072   3.7808   3.8010   3.8224   3.9024
  3.9670   3.9997   4.0844   4.1214   4.2718   4.3408   4.4183   4.5030
  4.5151   4.5655   4.5802   4.6392   4.6738   4.7191   4.7206   4.7866
  4.8688   4.8834   5.0011   5.0094   5.0262   5.0326   5.0377   5.0432
  5.0710   5.0908   5.1120   5.1158   5.1253   5.1376   5.1820   5.2388
  5.2528   5.2971   5.3696   5.3968   5.4274   5.4410   5.4662   5.5274
  5.5742   5.6293   5.7145   5.7398   5.8255   5.9878   6.0981   6.2280
  6.6311   6.6911   6.7078   6.7160   6.7436   6.7461   6.7645   6.8161
  6.8381   6.8475   6.9643   6.9819   7.0088   7.0627   7.1297   7.1616
  7.1695   7.1912   7.2183   7.2671   7.3173   7.4286   7.5168   7.6410
  7.7361   7.8534   7.9243   7.9375   8.1514   8.3576  35.9716  36.2793
 50.1108  50.2043  50.2596  50.3008
 
 Beta MOs
 -- Occupied --
-19.4041 -19.3702 -19.3536 -19.3417 -14.7851 -14.5784  -1.4937  -1.3269
 -1.2835  -1.2004  -0.8321  -0.7513  -0.7496  -0.7043  -0.6830  -0.6096
 -0.5793  -0.5526  -0.4943  -0.4788  -0.4586  -0.4395
 -- Virtual --
 -0.1178  -0.0231   0.0107   0.0578   0.0858   0.1213   0.1357   0.1430
  0.1707   0.1829   0.1926   0.2223   0.2451   0.2489   0.2632   0.2667
  0.2761   0.2961   0.3139   0.3218   0.3260   0.3434   0.3530   0.3614
  0.3840   0.3942   0.4190   0.4348   0.4492   0.4838   0.5250   0.5518
  0.7402   0.7755   0.8122   0.8306   0.8806   0.8990   0.9446   0.9656
  0.9830   1.0172   1.0436   1.0580   1.0615   1.0870   1.1049   1.1159
  1.1230   1.1423   1.1503   1.1784   1.1881   1.1981   1.2323   1.2420
  1.2484   1.3378   1.4806   1.4907   1.5172   1.5611   1.5878   1.5940
  1.6329   1.6503   1.6614   1.6904   1.7536   1.7871   1.8116   1.9546
  1.9753   2.0972   2.1160   2.1737   2.2121   2.2717   2.4039   2.4665
  2.5158   2.5354   2.5675   2.6281   2.7539   2.7949   3.5627   3.5677
  3.6087   3.6214   3.6346   3.6806   3.7050   3.7207   3.8037   3.8204
  3.8884   3.9195   3.9895   4.0056   4.1032   4.1405   4.2785   4.3505
  4.4224   4.5049   4.5290   4.5742   4.5928   4.6532   4.6984   4.7485
  4.7668   4.8308   4.9131   4.9224   5.0139   5.0215   5.0413   5.0434
  5.0677   5.0716   5.0828   5.1086   5.1235   5.1289   5.1480   5.1642
  5.1890   5.2654   5.2749   5.3175   5.3849   5.4000   5.4528   5.4609
  5.4868   5.5378   5.5875   5.6572   5.7247   5.7597   5.8341   6.0179
  6.1159   6.2340   6.6385   6.7092   6.7406   6.7505   6.7744   6.7981
  6.8020   6.8329   6.8473   6.8689   6.9708   6.9899   7.0365   7.0768
  7.1387   7.1816   7.1941   7.2178   7.2390   7.2723   7.3421   7.4447
  7.5360   7.6615   7.7591   7.8722   7.9364   7.9600   8.1616   8.3675
 35.9928  36.2793  50.1211  50.2185  50.2599  50.3092
 --------------------------------------------------------------
 
 -----------------------------------------------------------------
                    Cartesian Multipole Moments
 -----------------------------------------------------------------
    Charge (ESU x 10^10)
                -0.0000
    Dipole Moment (Debye)
         X      -0.2916      Y      -0.4336      Z      -0.1322
       Tot       0.5390
    Quadrupole Moments (Debye-Ang)
        XX     -32.7728     XY      -1.0962     YY     -33.9237
        XZ      -2.0082     YZ       0.5132     ZZ     -33.3814
    Octopole Moments (Debye-Ang^2)
       XXX     -34.1609    XXY     -12.7531    XYY     -11.2894
       YYY     -40.0768    XXZ     -95.4604    XYZ      -4.4480
       YYZ     -93.5242    XZZ     -18.5560    YZZ      -4.8832
       ZZZ    -282.7848
    Hexadecapole Moments (Debye-Ang^3)
      XXXX    -138.3183   XXXY     -58.6724   XXYY     -78.7147
      XYYY     -60.5881   YYYY    -335.8612   XXXZ     -95.1698
      XXYZ     -14.7994   XYYZ     -29.3300   YYYZ     -36.8678
      XXZZ    -321.4675   XYZZ     -35.7759   YYZZ    -338.1521
      XZZZ    -111.8966   YZZZ       7.7407   ZZZZ   -1744.2647
 -----------------------------------------------------------------
Archival summary:
1\1\centos77-c5\SP\ProcedureUnspecified\BasisUnspecified\42(3)\shihchen\MonJul1315:34:042020MonJul1315:34:042020\0\\#,ProcedureUnspecified,BasisUnspecified,\\0,3\N\O,1,1.19791\O,1,1.20132,2,135.988\O,1,1.23908,2,129.341,3,-178.803,0\N,4,1.66437,1,106.9,2,1.98091,0\O,5,1.15686,4,133.923,1,95.6949,0\\\@

 Total job time:  15.13s(wall), 80.61s(cpu) 
 Mon Jul 13 15:34:04 2020

        *************************************************************
        *                                                           *
        *  Thank you very much for using Q-Chem.  Have a nice day.  *
        *                                                           *
        *************************************************************


