                  Welcome to Q-Chem
     A Quantum Leap Into The Future Of Chemistry


 Q-Chem 5.3 (devel), Q-Chem, Inc., Pleasanton, CA (2020)

 Yihan Shao,  Zhengting Gan,  E. Epifanovsky,  A. T. B. Gilbert,  M. Wormit,  
 J. Kussmann,  A. W. Lange,  A. Behn,  Jia Deng,  Xintian Feng,  D. Ghosh,  
 M. Goldey,  P. R. Horn,  L. D. Jacobson,  I. Kaliman,  T. Kus,  A. Landau,  
 Jie Liu,  E. I. Proynov,  R. M. Richard,  R. P. Steele,  E. J. Sundstrom,  
 H. L. Woodcock III,  P. M. Zimmerman,  D. Zuev,  B. Alam,  B. Albrecht,  
 E. Alguire,  S. A. Baeppler,  D. Barton,  Z. Benda,  Y. A. Bernard,  
 E. J. Berquist,  K. B. Bravaya,  H. Burton,  K. Carter-Fenk,  D. Casanova,  
 Chun-Min Chang,  Yunqing Chen,  A. Chien,  K. D. Closser,  M. P. Coons,  
 S. Coriani,  S. Dasgupta,  A. L. Dempwolff,  M. Diedenhofen,  Hainam Do,  
 R. G. Edgar,  Po-Tung Fang,  S. Faraji,  S. Fatehi,  Qingguo Feng,  
 J. Fosso-Tande,  J. Gayvert,  Qinghui Ge,  A. Ghysels,  G. Gidofalvi,  
 J. Gomes,  J. Gonthier,  A. Gunina,  D. Hait,  M. W. D. Hanson-Heine,  
 P. H. P. Harbach,  A. W. Hauser,  M. F. Herbst,  J. E. Herr,  
 E. G. Hohenstein,  Z. C. Holden,  Kerwin Hui,  B. C. Huynh,  T.-C. Jagau,  
 Hyunjun Ji,  B. Kaduk,  K. Khistyaev,  Jaehoon Kim,  P. Klunzinger,  K. Koh,  
 D. Kosenkov,  L. Koulias,  T. Kowalczyk,  C. M. Krauter,  A. Kunitsa,  
 Ka Un Lao,  A. Laurent,  K. V. Lawler,  Joonho Lee,  D. Lefrancois,  
 S. Lehtola,  D. S. Levine,  Yi-Pei Li,  You-Sheng Lin,  Fenglai Liu,  
 Kuan-Yu Liu,  E. Livshits,  M. Loipersberger,  A. Luenser,  P. Manohar,  
 E. Mansoor,  S. F. Manzer,  Shan-Ping Mao,  Yuezhi Mao,  N. Mardirossian,  
 A. V. Marenich,  T. Markovich,  L. A. Martinez-Martinez,  S. A. Maurer,  
 N. J. Mayhall,  S. C. McKenzie,  J.-M. Mewes,  P. Morgante,  A. F. Morrison,  
 J. W. Mullinax,  K. Nanda,  T. S. Nguyen-Beck,  R. Olivares-Amaya,  
 K. J. Oosterbaan,  J. A. Parkhill,  S. K. Paul,  F. Pavosevic,  Zheng Pei,  
 T. M. Perrine,  F. Plasser,  P. Pokhilko,  S. Prager,  A. Prociuk,  
 E. Ramos,  B. Rana,  D. R. Rehn,  F. Rob,  M. Scheurer,  M. Schneider,  
 N. Sergueev,  S. M. Sharada,  S. Sharma,  D. W. Small,  T. Stauch,  
 C. J. Stein,  T. Stein,  Yu-Chuan Su,  S. P. Veccham,  Zhen Tao,  
 A. J. W. Thom,  A. Tkatchenko,  T. Tsuchimochi,  N. M. Tubman,  L. Vogt,  
 M. L. Vidal,  O. Vydrov,  M. A. Watson,  J. Wenzel,  M. de Wergifosse,  
 T. A. Wesolowski,  A. White,  J. Witte,  A. Yamada,  Jun Yang,  K. Yao,  
 S. Yeganeh,  S. R. Yost,  Zhi-Qiang You,  A. Zech,  Igor Ying Zhang,  
 Xing Zhang,  Yan Zhao,  Ying Zhu,  B. R. Brooks,  G. K. L. Chan,  
 C. J. Cramer,  M. S. Gordon,  W. J. Hehre,  A. Klamt,  M. W. Schmidt,  
 C. D. Sherrill,  D. G. Truhlar,  A. Aspuru-Guzik,  R. Baer,  A. T. Bell,  
 N. A. Besley,  Jeng-Da Chai,  A. E. DePrince, III,  R. A. DiStasio Jr.,  
 A. Dreuw,  B. D. Dunietz,  T. R. Furlani,  Chao-Ping Hsu,  Yousung Jung,  
 Jing Kong,  D. S. Lambrecht,  WanZhen Liang,  C. Ochsenfeld,  
 V. A. Rassolov,  L. V. Slipchenko,  J. E. Subotnik,  T. Van Voorhis,  
 J. M. Herbert,  A. I. Krylov,  P. M. W. Gill,  M. Head-Gordon

 Contributors to earlier versions of Q-Chem not listed above: 
 R. D. Adamson,  B. Austin,  J. Baker,  G. J. O. Beran,  K. Brandhorst,  
 S. T. Brown,  E. F. C. Byrd,  A. K. Chakraborty,  C.-L. Cheng,  
 Siu Hung Chien,  D. M. Chipman,  D. L. Crittenden,  H. Dachsel,  
 R. J. Doerksen,  A. D. Dutoi,  L. Fusti-Molnar,  W. A. Goddard III,  
 A. Golubeva-Zadorozhnaya,  S. R. Gwaltney,  G. Hawkins,  A. Heyden,  
 S. Hirata,  G. Kedziora,  F. J. Keil,  C. Kelley,  Jihan Kim,  R. A. King,  
 R. Z. Khaliullin,  P. P. Korambath,  W. Kurlancheek,  A. M. Lee,  M. S. Lee,  
 S. V. Levchenko,  Ching Yeh Lin,  D. Liotard,  R. C. Lochan,  I. Lotan,  
 P. E. Maslen,  N. Nair,  D. P. O'Neill,  D. Neuhauser,  E. Neuscamman,  
 C. M. Oana,  R. Olson,  B. Peters,  R. Peverati,  P. A. Pieniazek,  
 Y. M. Rhee,  J. Ritchie,  M. A. Rohrdanz,  E. Rosta,  N. J. Russ,  
 H. F. Schaefer III,  N. E. Schultz,  N. Shenvi,  A. C. Simmonett,  A. Sodt,  
 D. Stuck,  K. S. Thanthiriwatte,  V. Vanovschi,  Tao Wang,  A. Warshel,  
 C. F. Williams,  Q. Wu,  X. Xu,  W. Zhang

 Please cite Q-Chem as follows:
 Y. Shao et al., Mol. Phys. 113, 184-215 (2015)
 DOI: 10.1080/00268976.2014.952696

 Q-Chem 5.3.0 for Intel X86 EM64T Linux

 Parts of Q-Chem use Armadillo 9.800.1 (Horizon Scraper).
 http://arma.sourceforge.net/

 Q-Chem begins on Mon Jul 13 15:43:34 2020  

Host: centos77-c5
0

     Scratch files written to /tmp/29025.centos77-h1/qchem63852//
Processing $rem in /opt/qchem-5.3.0-intel2020u1//config/preferences:
Processing $rem in /home/shihchengli/.qchemrc:

Checking the input file for inconsistencies... 	...done.

--------------------------------------------------------------
User input:
--------------------------------------------------------------
$rem
   JOBTYPE  sp
   EXCHANGE   omegaB97X-D
   BASIS   6-311+G(2df,2pd)
   UNRESTRICTED   True
   max_scf_cycles   250
   geom_opt_max_cycles   1500
   basis2 6-31G*
   scf_algorithm rca_diis
   SYM_IGNORE  TRUE
   print_input   true
   geom_opt_dmax   80
   pop_mulliken false
   XC_GRID 000075000302
$end

$molecule
0 3
N       0.7101664308     1.2352820435     2.4816925204
O       0.3610197346     2.1815462751     1.8476968119
O       1.6089062938     0.9637643354     3.2071174424
N       0.0370486866     -1.1567180855     3.1390643587
O       -0.4757979392     -1.3219370952     4.1764204221
O       -0.2963520765     0.1930516366     2.2483083346
$end
--------------------------------------------------------------
 ----------------------------------------------------------------
             Standard Nuclear Orientation (Angstroms)
    I     Atom           X                Y                Z
 ----------------------------------------------------------------
    1      N       0.7101664308     1.2352820435     2.4816925204
    2      O       0.3610197346     2.1815462751     1.8476968119
    3      O       1.6089062938     0.9637643354     3.2071174424
    4      N       0.0370486866    -1.1567180855     3.1390643587
    5      O      -0.4757979392    -1.3219370952     4.1764204221
    6      O      -0.2963520765     0.1930516366     2.2483083346
 ----------------------------------------------------------------
 Nuclear Repulsion Energy =         230.15890822 hartrees
 There are       24 alpha and       22 beta electrons
 Requested basis set is 6-311+G(2df,2pd)
 There are 48 shells and 204 basis functions

 Total QAlloc Memory Limit   2000 MB
 Mega-Array Size       188 MB
 MEM_STATIC part       192 MB

                       Distance Matrix (Angstroms)
             N (  1)   O (  2)   O (  3)   N (  4)   O (  5)
   O (  2)  1.191331
   O (  3)  1.186464  2.210936
   N (  4)  2.570387  3.593967  2.640419
   O (  5)  3.289070  4.289244  3.241909  1.168938
   O (  6)  1.467580  2.132308  2.267889  1.651206  2.458660
 
 A cutoff of  1.0D-09 yielded   1023 shell pairs
 There are     19075 function pairs (     25005 Cartesian)
 Smallest overlap matrix eigenvalue = 6.68E-04

 Scale SEOQF with 1.000000e-01/1.000000e-01/1.000000e-01

 Standard Electronic Orientation quadrupole field applied
 Nucleus-field energy     =    -0.0000000363 hartrees
 Requested basis set is 6-31G(d)
 There are 24 shells and 84 basis functions
 A cutoff of  1.0D-09 yielded    269 shell pairs
 There are      3538 function pairs (      4066 Cartesian)
 Smallest overlap matrix eigenvalue = 4.59E-03
 Guess from superposition of atomic densities
 Warning:  Energy on first SCF cycle will be non-variational
 SAD guess density has 46.000000 electrons
 Long-range K will be added via erf
 Coulomb attenuation parameter = 0.2 bohr**(-1)
 An unrestricted hybrid HF-DFT SCF calculation will be
 performed using Relaxed Constraint Minimization + Pulay DIIS
 Exchange:     0.2220 Hartree-Fock + 1.0000 wB97X-D + LR-HF
 Correlation:  1.0000 wB97X-D
 Using Euler-Maclaurin-Lebedev (75,302) quadrature formula
 Dispersion:   Grimme D
 SCF converges when DIIS error is below 1.0E-04
 using 6 threads for integral computing
 -------------------------------------------------------
 OpenMP Integral computing Module                
 Release: version 1.0, May 2013, Q-Chem Inc. Pittsburgh 
 -------------------------------------------------------
 using 6 threads for integral computing
 -------------------------------------------------------
 OpenMP Integral computing Module                
 Release: version 1.0, May 2013, Q-Chem Inc. Pittsburgh 
 -------------------------------------------------------
 ---------------------------------------
  Cycle       Energy         DIIS Error
 ---------------------------------------
    1    -410.9481034943      8.69E-02
    2    -409.6626991749      1.93E-02
    3    -409.7658922610      4.17E-03
    4    -409.9114254351      4.36E-03
    5    -409.9168886649      6.50E-04 Done RCA. Switching to DIIS
    6    -409.9243758270      5.69E-04
    7    -409.9248071629      1.06E-04
    8    -409.9248925624      7.73E-05 Convergence criterion met
 ---------------------------------------
 <S^2> = 2.0162
 SCF time:  CPU 14.12 s  wall 2.37 s
 SCF   energy in the small basis set = -409.92489256
 Total energy in the small basis set = -409.92489256
 ----------------------------------------------------
  Cycle       Energy    
 ----------------------------------------------------
    1     -41.7275500441     -4.17E+01
 Long-range K will be added via erf
 Coulomb attenuation parameter = 0.2 bohr**(-1)
 An unrestricted hybrid HF-DFT SCF calculation will be
 performed using Relaxed Constraint Minimization + Pulay DIIS
 Exchange:     0.2220 Hartree-Fock + 1.0000 wB97X-D + LR-HF
 Correlation:  1.0000 wB97X-D
 Using Euler-Maclaurin-Lebedev (75,302) quadrature formula
 Dispersion:   Grimme D
 SCF converges when DIIS error is below 1.0E-05
 Basis2 calculation detected. Using small basis as guess for larger.
 SCFMinFind is unable to tell whether the solution found is close.
 Resetting ReadMinima to 0 and attempting to follow guess.
 SCFMinFind following SCF Guess.
 using 6 threads for integral computing
 -------------------------------------------------------
 OpenMP Integral computing Module                
 Release: version 1.0, May 2013, Q-Chem Inc. Pittsburgh 
 -------------------------------------------------------
 using 6 threads for integral computing
 -------------------------------------------------------
 OpenMP Integral computing Module                
 Release: version 1.0, May 2013, Q-Chem Inc. Pittsburgh 
 -------------------------------------------------------
 ---------------------------------------
  Cycle       Energy         DIIS Error
 ---------------------------------------
    1    -410.0159633771      8.01E-03
    2    -410.0258614847      4.07E-03
    3    -410.0463384953      1.08E-03
    4    -410.0748034693      1.17E-03
    5    -410.0767532066      1.97E-04 Done RCA. Switching to DIIS
    6    -410.0794562124      2.18E-04
    7    -410.0796500183      4.87E-05
    8    -410.0796924913      1.75E-05
    9    -410.0797080639      9.05E-06 Convergence criterion met
 ---------------------------------------
 <S^2> = 2.0186
 SCF time:  CPU 58.42 s  wall 9.77 s
 SCF   energy in the final basis set = -410.07970806
 Total energy in the final basis set = -410.07970806
 
 --------------------------------------------------------------
 
                    Orbital Energies (a.u.)
 --------------------------------------------------------------
 
 Alpha MOs
 -- Occupied --
-19.4021 -19.3948 -19.3595 -19.3584 -14.7756 -14.6148  -1.4389  -1.3638
 -1.2685  -1.1883  -0.8624  -0.7768  -0.7222  -0.7152  -0.6848  -0.6552
 -0.6313  -0.6277  -0.4988  -0.4897  -0.4716  -0.4639  -0.4379  -0.3353
 -- Virtual --
 -0.0291   0.0136   0.0654   0.1072   0.1192   0.1358   0.1389   0.1698
  0.1780   0.1848   0.2270   0.2423   0.2494   0.2616   0.2740   0.2878
  0.3048   0.3179   0.3265   0.3447   0.3513   0.3615   0.3675   0.3885
  0.3987   0.4292   0.4459   0.4594   0.4965   0.5356   0.7424   0.7635
  0.8041   0.8299   0.8638   0.8712   0.9196   0.9537   0.9755   1.0175
  1.0215   1.0511   1.0566   1.0672   1.0793   1.0819   1.1202   1.1316
  1.1394   1.1619   1.1652   1.1808   1.2210   1.2423   1.2511   1.3155
  1.4475   1.4570   1.4991   1.5455   1.5502   1.5916   1.6009   1.6316
  1.6554   1.6662   1.6869   1.7796   1.8095   1.8947   1.9113   1.9507
  1.9794   2.1074   2.1746   2.2529   2.3251   2.3817   2.4406   2.5005
  2.5215   2.5593   2.6745   2.7908   3.4990   3.5433   3.5664   3.6072
  3.6231   3.6582   3.6717   3.7003   3.7218   3.7721   3.7983   3.8827
  3.9469   3.9798   4.0241   4.0342   4.0638   4.3812   4.4565   4.4787
  4.4841   4.6059   4.6569   4.6753   4.6887   4.7294   4.7366   4.7831
  4.8306   4.9153   4.9940   4.9991   5.0226   5.0269   5.0377   5.0409
  5.0590   5.0784   5.0919   5.1009   5.1161   5.1445   5.1663   5.1780
  5.2049   5.2733   5.3167   5.3702   5.3985   5.4198   5.4678   5.4923
  5.5127   5.5377   5.5909   5.6481   5.7436   5.7806   5.9674   6.1025
  6.3490   6.4676   6.5893   6.6559   6.6830   6.7303   6.7427   6.7564
  6.7880   6.8105   6.8743   6.9501   6.9882   7.0151   7.0784   7.1209
  7.1360   7.1675   7.1738   7.2011   7.2800   7.3304   7.4594   7.5136
  7.6377   7.6965   7.7617   7.7988   7.9025   8.3868  35.9191  36.0867
 49.9836  50.1694  50.2275  50.2519
 
 Beta MOs
 -- Occupied --
-19.3887 -19.3769 -19.3589 -19.3575 -14.7753 -14.5970  -1.4351  -1.3258
 -1.2664  -1.1525  -0.8201  -0.7469  -0.7134  -0.7042  -0.6771  -0.6016
 -0.5781  -0.5549  -0.4751  -0.4675  -0.4651  -0.4570
 -- Virtual --
 -0.1431  -0.0270  -0.0071   0.0630   0.0829   0.1206   0.1234   0.1394
  0.1433   0.1717   0.1814   0.1893   0.2281   0.2462   0.2524   0.2632
  0.2771   0.2902   0.3119   0.3193   0.3283   0.3462   0.3533   0.3634
  0.3693   0.3944   0.4092   0.4328   0.4495   0.4643   0.5151   0.5406
  0.7524   0.7727   0.8184   0.8464   0.8756   0.8801   0.9225   0.9618
  0.9856   1.0233   1.0321   1.0641   1.0660   1.0766   1.0911   1.1034
  1.1266   1.1442   1.1504   1.1658   1.1844   1.1906   1.2332   1.2521
  1.2651   1.3310   1.4618   1.4717   1.5029   1.5502   1.5528   1.6029
  1.6211   1.6537   1.6638   1.6809   1.7129   1.7843   1.8180   1.9054
  1.9160   1.9661   1.9973   2.1148   2.1931   2.2668   2.3384   2.3920
  2.4550   2.5132   2.5251   2.5679   2.6812   2.7945   3.5216   3.5789
  3.5804   3.6248   3.6375   3.6597   3.6894   3.7121   3.7319   3.8031
  3.8656   3.9036   3.9721   3.9946   4.0246   4.0538   4.0829   4.3833
  4.4604   4.4813   4.4897   4.6369   4.6792   4.6982   4.7182   4.7434
  4.7727   4.8214   4.8672   4.9656   5.0091   5.0154   5.0390   5.0410
  5.0551   5.0659   5.0767   5.0834   5.1047   5.1186   5.1385   5.1656
  5.1926   5.2140   5.2195   5.3029   5.3353   5.3748   5.4160   5.4320
  5.4772   5.5031   5.5313   5.5648   5.6031   5.6783   5.7505   5.7873
  5.9830   6.1440   6.3581   6.4691   6.6026   6.6997   6.7164   6.7589
  6.7918   6.7962   6.8084   6.8176   6.8777   6.9821   6.9899   7.0284
  7.1014   7.1356   7.1379   7.1791   7.2069   7.2307   7.2857   7.3514
  7.4836   7.5246   7.6676   7.7231   7.7726   7.8224   7.9076   8.3890
 35.9406  36.0872  49.9979  50.1861  50.2294  50.2519
 --------------------------------------------------------------
 
 -----------------------------------------------------------------
                    Cartesian Multipole Moments
 -----------------------------------------------------------------
    Charge (ESU x 10^10)
                -0.0000
    Dipole Moment (Debye)
         X       0.0045      Y      -0.4506      Z       0.0753
       Tot       0.4569
    Quadrupole Moments (Debye-Ang)
        XX     -32.7848     XY      -0.6873     YY     -32.9251
        XZ      -1.1201     YZ      -0.0574     ZZ     -32.2326
    Octopole Moments (Debye-Ang^2)
       XXX     -33.2411    XXY     -12.4188    XYY     -10.9568
       YYY     -39.9911    XXZ     -95.1765    XYZ      -3.3614
       YYZ     -90.5350    XZZ     -15.5412    YZZ      -7.7119
       ZZZ    -277.2599
    Hexadecapole Moments (Debye-Ang^3)
      XXXX    -140.1704   XXXY     -61.6408   XXYY     -83.2084
      XYYY     -63.8454   YYYY    -361.7579   XXXZ     -89.8934
      XXYZ     -13.4683   XYYZ     -27.7187   YYYZ     -36.2629
      XXZZ    -319.9570   XYZZ     -33.6855   YYZZ    -332.6768
      XZZZ     -98.6247   YZZZ      -2.6060   ZZZZ   -1717.5705
 -----------------------------------------------------------------
Archival summary:
1\1\centos77-c5\SP\ProcedureUnspecified\BasisUnspecified\42(3)\shihchen\MonJul1315:43:482020MonJul1315:43:482020\0\\#,ProcedureUnspecified,BasisUnspecified,\\0,3\N\O,1,1.18646\O,1,1.19133,2,136.815\O,1,1.46758,2,117.015,3,-179.483,0\N,4,1.65121,1,110.87,2,2.44683,0\O,5,1.16894,4,120.377,1,95.6949,0\\\@

 Total job time:  14.46s(wall), 76.73s(cpu) 
 Mon Jul 13 15:43:48 2020

        *************************************************************
        *                                                           *
        *  Thank you very much for using Q-Chem.  Have a nice day.  *
        *                                                           *
        *************************************************************


