                  Welcome to Q-Chem
     A Quantum Leap Into The Future Of Chemistry


 Q-Chem 5.3 (devel), Q-Chem, Inc., Pleasanton, CA (2020)

 Yihan Shao,  Zhengting Gan,  E. Epifanovsky,  A. T. B. Gilbert,  M. Wormit,  
 J. Kussmann,  A. W. Lange,  A. Behn,  Jia Deng,  Xintian Feng,  D. Ghosh,  
 M. Goldey,  P. R. Horn,  L. D. Jacobson,  I. Kaliman,  T. Kus,  A. Landau,  
 Jie Liu,  E. I. Proynov,  R. M. Richard,  R. P. Steele,  E. J. Sundstrom,  
 H. L. Woodcock III,  P. M. Zimmerman,  D. Zuev,  B. Alam,  B. Albrecht,  
 E. Alguire,  S. A. Baeppler,  D. Barton,  Z. Benda,  Y. A. Bernard,  
 E. J. Berquist,  K. B. Bravaya,  H. Burton,  K. Carter-Fenk,  D. Casanova,  
 Chun-Min Chang,  Yunqing Chen,  A. Chien,  K. D. Closser,  M. P. Coons,  
 S. Coriani,  S. Dasgupta,  A. L. Dempwolff,  M. Diedenhofen,  Hainam Do,  
 R. G. Edgar,  Po-Tung Fang,  S. Faraji,  S. Fatehi,  Qingguo Feng,  
 J. Fosso-Tande,  J. Gayvert,  Qinghui Ge,  A. Ghysels,  G. Gidofalvi,  
 J. Gomes,  J. Gonthier,  A. Gunina,  D. Hait,  M. W. D. Hanson-Heine,  
 P. H. P. Harbach,  A. W. Hauser,  M. F. Herbst,  J. E. Herr,  
 E. G. Hohenstein,  Z. C. Holden,  Kerwin Hui,  B. C. Huynh,  T.-C. Jagau,  
 Hyunjun Ji,  B. Kaduk,  K. Khistyaev,  Jaehoon Kim,  P. Klunzinger,  K. Koh,  
 D. Kosenkov,  L. Koulias,  T. Kowalczyk,  C. M. Krauter,  A. Kunitsa,  
 Ka Un Lao,  A. Laurent,  K. V. Lawler,  Joonho Lee,  D. Lefrancois,  
 S. Lehtola,  D. S. Levine,  Yi-Pei Li,  You-Sheng Lin,  Fenglai Liu,  
 Kuan-Yu Liu,  E. Livshits,  M. Loipersberger,  A. Luenser,  P. Manohar,  
 E. Mansoor,  S. F. Manzer,  Shan-Ping Mao,  Yuezhi Mao,  N. Mardirossian,  
 A. V. Marenich,  T. Markovich,  L. A. Martinez-Martinez,  S. A. Maurer,  
 N. J. Mayhall,  S. C. McKenzie,  J.-M. Mewes,  P. Morgante,  A. F. Morrison,  
 J. W. Mullinax,  K. Nanda,  T. S. Nguyen-Beck,  R. Olivares-Amaya,  
 K. J. Oosterbaan,  J. A. Parkhill,  S. K. Paul,  F. Pavosevic,  Zheng Pei,  
 T. M. Perrine,  F. Plasser,  P. Pokhilko,  S. Prager,  A. Prociuk,  
 E. Ramos,  B. Rana,  D. R. Rehn,  F. Rob,  M. Scheurer,  M. Schneider,  
 N. Sergueev,  S. M. Sharada,  S. Sharma,  D. W. Small,  T. Stauch,  
 C. J. Stein,  T. Stein,  Yu-Chuan Su,  S. P. Veccham,  Zhen Tao,  
 A. J. W. Thom,  A. Tkatchenko,  T. Tsuchimochi,  N. M. Tubman,  L. Vogt,  
 M. L. Vidal,  O. Vydrov,  M. A. Watson,  J. Wenzel,  M. de Wergifosse,  
 T. A. Wesolowski,  A. White,  J. Witte,  A. Yamada,  Jun Yang,  K. Yao,  
 S. Yeganeh,  S. R. Yost,  Zhi-Qiang You,  A. Zech,  Igor Ying Zhang,  
 Xing Zhang,  Yan Zhao,  Ying Zhu,  B. R. Brooks,  G. K. L. Chan,  
 C. J. Cramer,  M. S. Gordon,  W. J. Hehre,  A. Klamt,  M. W. Schmidt,  
 C. D. Sherrill,  D. G. Truhlar,  A. Aspuru-Guzik,  R. Baer,  A. T. Bell,  
 N. A. Besley,  Jeng-Da Chai,  A. E. DePrince, III,  R. A. DiStasio Jr.,  
 A. Dreuw,  B. D. Dunietz,  T. R. Furlani,  Chao-Ping Hsu,  Yousung Jung,  
 Jing Kong,  D. S. Lambrecht,  WanZhen Liang,  C. Ochsenfeld,  
 V. A. Rassolov,  L. V. Slipchenko,  J. E. Subotnik,  T. Van Voorhis,  
 J. M. Herbert,  A. I. Krylov,  P. M. W. Gill,  M. Head-Gordon

 Contributors to earlier versions of Q-Chem not listed above: 
 R. D. Adamson,  B. Austin,  J. Baker,  G. J. O. Beran,  K. Brandhorst,  
 S. T. Brown,  E. F. C. Byrd,  A. K. Chakraborty,  C.-L. Cheng,  
 Siu Hung Chien,  D. M. Chipman,  D. L. Crittenden,  H. Dachsel,  
 R. J. Doerksen,  A. D. Dutoi,  L. Fusti-Molnar,  W. A. Goddard III,  
 A. Golubeva-Zadorozhnaya,  S. R. Gwaltney,  G. Hawkins,  A. Heyden,  
 S. Hirata,  G. Kedziora,  F. J. Keil,  C. Kelley,  Jihan Kim,  R. A. King,  
 R. Z. Khaliullin,  P. P. Korambath,  W. Kurlancheek,  A. M. Lee,  M. S. Lee,  
 S. V. Levchenko,  Ching Yeh Lin,  D. Liotard,  R. C. Lochan,  I. Lotan,  
 P. E. Maslen,  N. Nair,  D. P. O'Neill,  D. Neuhauser,  E. Neuscamman,  
 C. M. Oana,  R. Olson,  B. Peters,  R. Peverati,  P. A. Pieniazek,  
 Y. M. Rhee,  J. Ritchie,  M. A. Rohrdanz,  E. Rosta,  N. J. Russ,  
 H. F. Schaefer III,  N. E. Schultz,  N. Shenvi,  A. C. Simmonett,  A. Sodt,  
 D. Stuck,  K. S. Thanthiriwatte,  V. Vanovschi,  Tao Wang,  A. Warshel,  
 C. F. Williams,  Q. Wu,  X. Xu,  W. Zhang

 Please cite Q-Chem as follows:
 Y. Shao et al., Mol. Phys. 113, 184-215 (2015)
 DOI: 10.1080/00268976.2014.952696

 Q-Chem 5.3.0 for Intel X86 EM64T Linux

 Parts of Q-Chem use Armadillo 9.800.1 (Horizon Scraper).
 http://arma.sourceforge.net/

 Q-Chem begins on Mon Jul 13 15:32:44 2020  

Host: centos77-c5
0

     Scratch files written to /tmp/29025.centos77-h1/qchem1218//
Processing $rem in /opt/qchem-5.3.0-intel2020u1//config/preferences:
Processing $rem in /home/shihchengli/.qchemrc:

Checking the input file for inconsistencies... 	...done.

--------------------------------------------------------------
User input:
--------------------------------------------------------------
$rem
   JOBTYPE  sp
   EXCHANGE   omegaB97X-D
   BASIS   6-311+G(2df,2pd)
   UNRESTRICTED   True
   max_scf_cycles   250
   geom_opt_max_cycles   1500
   basis2 6-31G*
   scf_algorithm rca_diis
   SYM_IGNORE  TRUE
   print_input   true
   geom_opt_dmax   80
   pop_mulliken false
   XC_GRID 000075000302
$end

$molecule
0 3
N       0.6904758919     1.1947453071     2.4847111633
O       0.3631243019     2.1501806023     1.8506051951
O       1.6079537541     0.9801354485     3.2054576808
N       0.0257562054     -1.1235786296     3.1371162848
O       -0.4664237856     -1.3383510046     4.1721973504
O       -0.2758952375     0.2318573862     2.2502122155
$end
--------------------------------------------------------------
 ----------------------------------------------------------------
             Standard Nuclear Orientation (Angstroms)
    I     Atom           X                Y                Z
 ----------------------------------------------------------------
    1      N       0.6904758919     1.1947453071     2.4847111633
    2      O       0.3631243019     2.1501806023     1.8506051951
    3      O       1.6079537541     0.9801354485     3.2054576808
    4      N       0.0257562054    -1.1235786296     3.1371162848
    5      O      -0.4664237856    -1.3383510046     4.1721973504
    6      O      -0.2758952375     0.2318573862     2.2502122155
 ----------------------------------------------------------------
 Nuclear Repulsion Energy =         232.76429042 hartrees
 There are       24 alpha and       22 beta electrons
 Requested basis set is 6-311+G(2df,2pd)
 There are 48 shells and 204 basis functions

 Total QAlloc Memory Limit   2000 MB
 Mega-Array Size       188 MB
 MEM_STATIC part       192 MB

                       Distance Matrix (Angstroms)
             N (  1)   O (  2)   O (  3)   N (  4)   O (  5)
   O (  2)  1.192521
   O (  3)  1.186296  2.180420
   N (  4)  2.498422  3.533614  2.633179
   O (  5)  3.256164  4.271744  3.257761  1.166088
   O (  6)  1.384202  2.061067  2.240826  1.647665  2.489153
 
 A cutoff of  1.0D-09 yielded   1028 shell pairs
 There are     19217 function pairs (     25229 Cartesian)
 Smallest overlap matrix eigenvalue = 6.50E-04

 Scale SEOQF with 1.000000e-01/1.000000e-01/1.000000e-01

 Standard Electronic Orientation quadrupole field applied
 Nucleus-field energy     =    -0.0000000364 hartrees
 Requested basis set is 6-31G(d)
 There are 24 shells and 84 basis functions
 A cutoff of  1.0D-09 yielded    269 shell pairs
 There are      3538 function pairs (      4066 Cartesian)
 Smallest overlap matrix eigenvalue = 4.67E-03
 Guess from superposition of atomic densities
 Warning:  Energy on first SCF cycle will be non-variational
 SAD guess density has 46.000000 electrons
 Long-range K will be added via erf
 Coulomb attenuation parameter = 0.2 bohr**(-1)
 An unrestricted hybrid HF-DFT SCF calculation will be
 performed using Relaxed Constraint Minimization + Pulay DIIS
 Exchange:     0.2220 Hartree-Fock + 1.0000 wB97X-D + LR-HF
 Correlation:  1.0000 wB97X-D
 Using Euler-Maclaurin-Lebedev (75,302) quadrature formula
 Dispersion:   Grimme D
 SCF converges when DIIS error is below 1.0E-04
 using 6 threads for integral computing
 -------------------------------------------------------
 OpenMP Integral computing Module                
 Release: version 1.0, May 2013, Q-Chem Inc. Pittsburgh 
 -------------------------------------------------------
 using 6 threads for integral computing
 -------------------------------------------------------
 OpenMP Integral computing Module                
 Release: version 1.0, May 2013, Q-Chem Inc. Pittsburgh 
 -------------------------------------------------------
 ---------------------------------------
  Cycle       Energy         DIIS Error
 ---------------------------------------
    1    -411.0860182367      8.93E-02
    2    -409.6562631667      1.96E-02
    3    -409.7603597799      4.54E-03
    4    -409.9096779842      4.78E-03
    5    -409.9161046265      6.36E-04 Done RCA. Switching to DIIS
    6    -409.9245490098      5.35E-04
    7    -409.9249267745      1.08E-04
    8    -409.9250005180      6.10E-05 Convergence criterion met
 ---------------------------------------
 <S^2> = 2.0153
 SCF time:  CPU 14.55 s  wall 2.44 s
 SCF   energy in the small basis set = -409.92500052
 Total energy in the small basis set = -409.92500052
 ----------------------------------------------------
  Cycle       Energy    
 ----------------------------------------------------
    1     -41.7733526939     -4.18E+01
 Long-range K will be added via erf
 Coulomb attenuation parameter = 0.2 bohr**(-1)
 An unrestricted hybrid HF-DFT SCF calculation will be
 performed using Relaxed Constraint Minimization + Pulay DIIS
 Exchange:     0.2220 Hartree-Fock + 1.0000 wB97X-D + LR-HF
 Correlation:  1.0000 wB97X-D
 Using Euler-Maclaurin-Lebedev (75,302) quadrature formula
 Dispersion:   Grimme D
 SCF converges when DIIS error is below 1.0E-05
 Basis2 calculation detected. Using small basis as guess for larger.
 SCFMinFind is unable to tell whether the solution found is close.
 Resetting ReadMinima to 0 and attempting to follow guess.
 SCFMinFind following SCF Guess.
 using 6 threads for integral computing
 -------------------------------------------------------
 OpenMP Integral computing Module                
 Release: version 1.0, May 2013, Q-Chem Inc. Pittsburgh 
 -------------------------------------------------------
 using 6 threads for integral computing
 -------------------------------------------------------
 OpenMP Integral computing Module                
 Release: version 1.0, May 2013, Q-Chem Inc. Pittsburgh 
 -------------------------------------------------------
 ---------------------------------------
  Cycle       Energy         DIIS Error
 ---------------------------------------
    1    -410.0126304579      8.04E-03
    2    -410.0179651757      4.32E-03
    3    -410.0406460379      1.26E-03
    4    -410.0731751471      1.17E-03
    5    -410.0758720561      1.53E-04 Done RCA. Switching to DIIS
    6    -410.0798759298      1.80E-04
    7    -410.0800843802      5.60E-05
    8    -410.0801765979      2.21E-05
    9    -410.0802064430      1.25E-05
   10    -410.0802154440      6.08E-06 Convergence criterion met
 ---------------------------------------
 <S^2> = 2.0175
 SCF time:  CPU 65.36 s  wall 10.92 s
 SCF   energy in the final basis set = -410.08021544
 Total energy in the final basis set = -410.08021544
 
 --------------------------------------------------------------
 
                    Orbital Energies (a.u.)
 --------------------------------------------------------------
 
 Alpha MOs
 -- Occupied --
-19.4152 -19.3992 -19.3483 -19.3478 -14.7753 -14.6190  -1.4505  -1.3696
 -1.2623  -1.2154  -0.8766  -0.7773  -0.7228  -0.7212  -0.6888  -0.6553
 -0.6332  -0.6322  -0.5047  -0.5001  -0.4643  -0.4620  -0.4338  -0.3397
 -- Virtual --
 -0.0242   0.0091   0.0803   0.1165   0.1342   0.1371   0.1411   0.1720
  0.1805   0.1858   0.2271   0.2420   0.2502   0.2658   0.2709   0.2903
  0.3053   0.3248   0.3375   0.3433   0.3517   0.3605   0.3706   0.3904
  0.4000   0.4331   0.4451   0.4634   0.4932   0.5263   0.7395   0.7618
  0.8024   0.8299   0.8629   0.8733   0.9328   0.9529   0.9767   1.0141
  1.0241   1.0488   1.0571   1.0700   1.0769   1.0854   1.1205   1.1240
  1.1401   1.1570   1.1653   1.1732   1.2166   1.2399   1.2506   1.3183
  1.4479   1.4873   1.5128   1.5479   1.5662   1.5870   1.6008   1.6119
  1.6472   1.6813   1.7038   1.7891   1.8088   1.9055   1.9329   1.9835
  2.0068   2.1284   2.1992   2.2405   2.3523   2.3789   2.4503   2.5026
  2.5338   2.5747   2.6953   2.8089   3.5063   3.5342   3.5810   3.6183
  3.6392   3.6582   3.6863   3.7123   3.7259   3.7733   3.7980   3.8961
  3.9528   4.0082   4.0259   4.0892   4.1152   4.4086   4.4412   4.4812
  4.5022   4.5952   4.6391   4.6459   4.6900   4.6978   4.7421   4.7757
  4.8275   4.8985   4.9936   4.9994   5.0222   5.0241   5.0427   5.0473
  5.0657   5.0826   5.0938   5.1132   5.1222   5.1444   5.1689   5.1893
  5.2170   5.2686   5.3169   5.3783   5.4007   5.4275   5.4721   5.5045
  5.5496   5.5710   5.6314   5.6757   5.8519   5.9298   5.9902   6.1011
  6.4049   6.5301   6.6635   6.6822   6.7228   6.7335   6.7411   6.7663
  6.7940   6.8199   6.8718   6.9135   6.9623   7.0068   7.1040   7.1356
  7.1600   7.1711   7.1987   7.2727   7.3140   7.3533   7.4728   7.5657
  7.6886   7.6992   7.8396   7.8728   7.9243   8.2883  35.9214  36.1341
 50.0022  50.1710  50.2399  50.2621
 
 Beta MOs
 -- Occupied --
-19.4018 -19.3817 -19.3487 -19.3450 -14.7752 -14.6007  -1.4447  -1.3321
 -1.2590  -1.1840  -0.8321  -0.7450  -0.7203  -0.7048  -0.6743  -0.6057
 -0.5839  -0.5585  -0.4827  -0.4730  -0.4614  -0.4462
 -- Virtual --
 -0.1471  -0.0213  -0.0058   0.0610   0.0865   0.1208   0.1382   0.1419
  0.1531   0.1758   0.1846   0.1901   0.2283   0.2463   0.2531   0.2673
  0.2738   0.2926   0.3123   0.3266   0.3387   0.3451   0.3536   0.3625
  0.3722   0.3981   0.4088   0.4370   0.4477   0.4690   0.5123   0.5324
  0.7503   0.7717   0.8157   0.8459   0.8765   0.8817   0.9362   0.9606
  0.9883   1.0239   1.0300   1.0620   1.0686   1.0793   1.0930   1.1006
  1.1258   1.1375   1.1485   1.1683   1.1757   1.1848   1.2293   1.2494
  1.2643   1.3352   1.4638   1.5007   1.5172   1.5535   1.5710   1.5986
  1.6179   1.6297   1.6622   1.7041   1.7167   1.7927   1.8172   1.9173
  1.9375   1.9995   2.0218   2.1436   2.2099   2.2537   2.3659   2.3890
  2.4657   2.5161   2.5367   2.5823   2.7036   2.8131   3.5361   3.5705
  3.5978   3.6330   3.6555   3.6602   3.6988   3.7226   3.7416   3.8029
  3.8653   3.9157   3.9820   4.0138   4.0405   4.1062   4.1268   4.4121
  4.4446   4.4893   4.5044   4.6209   4.6439   4.6852   4.7145   4.7237
  4.7690   4.8160   4.8701   4.9490   5.0101   5.0152   5.0444   5.0479
  5.0565   5.0631   5.0807   5.0911   5.1143   5.1265   5.1411   5.1644
  5.1926   5.2188   5.2329   5.2947   5.3332   5.3991   5.4040   5.4423
  5.4890   5.5254   5.5705   5.5833   5.6536   5.6915   5.8556   5.9367
  6.0044   6.1408   6.4193   6.5328   6.7068   6.7163   6.7416   6.7703
  6.7914   6.8003   6.8028   6.8306   6.8739   6.9153   6.9926   7.0221
  7.1265   7.1511   7.1646   7.2043   7.2256   7.2797   7.3306   7.3710
  7.4998   7.5762   7.7163   7.7271   7.8512   7.8856   7.9341   8.2913
 35.9434  36.1344  50.0159  50.1872  50.2426  50.2621
 --------------------------------------------------------------
 
 -----------------------------------------------------------------
                    Cartesian Multipole Moments
 -----------------------------------------------------------------
    Charge (ESU x 10^10)
                -0.0000
    Dipole Moment (Debye)
         X      -0.2693      Y      -0.8282      Z       0.0783
       Tot       0.8744
    Quadrupole Moments (Debye-Ang)
        XX     -33.0313     XY      -1.0353     YY     -33.6081
        XZ      -1.9583     YZ      -0.8948     ZZ     -32.1741
    Octopole Moments (Debye-Ang^2)
       XXX     -34.0121    XXY     -12.9930    XYY     -11.5383
       YYY     -41.6490    XXZ     -95.9137    XYZ      -4.2806
       YYZ     -92.0534    XZZ     -18.2785    YZZ      -9.9015
       ZZZ    -276.7580
    Hexadecapole Moments (Debye-Ang^3)
      XXXX    -139.6099   XXXY     -61.9100   XXYY     -82.7001
      XYYY     -64.4589   YYYY    -358.0418   XXXZ     -92.1759
      XXYZ     -15.1199   XYYZ     -29.3132   YYYZ     -40.5407
      XXZZ    -321.8839   XYZZ     -36.0224   YYZZ    -335.1548
      XZZZ    -108.0763   YZZZ      -9.7380   ZZZZ   -1713.4860
 -----------------------------------------------------------------
Archival summary:
1\1\centos77-c5\SP\ProcedureUnspecified\BasisUnspecified\42(3)\shihchen\MonJul1315:33:002020MonJul1315:33:002020\0\\#,ProcedureUnspecified,BasisUnspecified,\\0,3\N\O,1,1.1863\O,1,1.19252,2,132.867\O,1,1.3842,2,121.133,3,-179.446,0\N,4,1.64766,1,110.686,2,2.39326,0\O,5,1.16609,4,123.508,1,95.6949,0\\\@

 Total job time:  15.76s(wall), 84.25s(cpu) 
 Mon Jul 13 15:33:00 2020

        *************************************************************
        *                                                           *
        *  Thank you very much for using Q-Chem.  Have a nice day.  *
        *                                                           *
        *************************************************************


