                  Welcome to Q-Chem
     A Quantum Leap Into The Future Of Chemistry


 Q-Chem 5.3 (devel), Q-Chem, Inc., Pleasanton, CA (2020)

 Yihan Shao,  Zhengting Gan,  E. Epifanovsky,  A. T. B. Gilbert,  M. Wormit,  
 J. Kussmann,  A. W. Lange,  A. Behn,  Jia Deng,  Xintian Feng,  D. Ghosh,  
 M. Goldey,  P. R. Horn,  L. D. Jacobson,  I. Kaliman,  T. Kus,  A. Landau,  
 Jie Liu,  E. I. Proynov,  R. M. Richard,  R. P. Steele,  E. J. Sundstrom,  
 H. L. Woodcock III,  P. M. Zimmerman,  D. Zuev,  B. Alam,  B. Albrecht,  
 E. Alguire,  S. A. Baeppler,  D. Barton,  Z. Benda,  Y. A. Bernard,  
 E. J. Berquist,  K. B. Bravaya,  H. Burton,  K. Carter-Fenk,  D. Casanova,  
 Chun-Min Chang,  Yunqing Chen,  A. Chien,  K. D. Closser,  M. P. Coons,  
 S. Coriani,  S. Dasgupta,  A. L. Dempwolff,  M. Diedenhofen,  Hainam Do,  
 R. G. Edgar,  Po-Tung Fang,  S. Faraji,  S. Fatehi,  Qingguo Feng,  
 J. Fosso-Tande,  J. Gayvert,  Qinghui Ge,  A. Ghysels,  G. Gidofalvi,  
 J. Gomes,  J. Gonthier,  A. Gunina,  D. Hait,  M. W. D. Hanson-Heine,  
 P. H. P. Harbach,  A. W. Hauser,  M. F. Herbst,  J. E. Herr,  
 E. G. Hohenstein,  Z. C. Holden,  Kerwin Hui,  B. C. Huynh,  T.-C. Jagau,  
 Hyunjun Ji,  B. Kaduk,  K. Khistyaev,  Jaehoon Kim,  P. Klunzinger,  K. Koh,  
 D. Kosenkov,  L. Koulias,  T. Kowalczyk,  C. M. Krauter,  A. Kunitsa,  
 Ka Un Lao,  A. Laurent,  K. V. Lawler,  Joonho Lee,  D. Lefrancois,  
 S. Lehtola,  D. S. Levine,  Yi-Pei Li,  You-Sheng Lin,  Fenglai Liu,  
 Kuan-Yu Liu,  E. Livshits,  M. Loipersberger,  A. Luenser,  P. Manohar,  
 E. Mansoor,  S. F. Manzer,  Shan-Ping Mao,  Yuezhi Mao,  N. Mardirossian,  
 A. V. Marenich,  T. Markovich,  L. A. Martinez-Martinez,  S. A. Maurer,  
 N. J. Mayhall,  S. C. McKenzie,  J.-M. Mewes,  P. Morgante,  A. F. Morrison,  
 J. W. Mullinax,  K. Nanda,  T. S. Nguyen-Beck,  R. Olivares-Amaya,  
 K. J. Oosterbaan,  J. A. Parkhill,  S. K. Paul,  F. Pavosevic,  Zheng Pei,  
 T. M. Perrine,  F. Plasser,  P. Pokhilko,  S. Prager,  A. Prociuk,  
 E. Ramos,  B. Rana,  D. R. Rehn,  F. Rob,  M. Scheurer,  M. Schneider,  
 N. Sergueev,  S. M. Sharada,  S. Sharma,  D. W. Small,  T. Stauch,  
 C. J. Stein,  T. Stein,  Yu-Chuan Su,  S. P. Veccham,  Zhen Tao,  
 A. J. W. Thom,  A. Tkatchenko,  T. Tsuchimochi,  N. M. Tubman,  L. Vogt,  
 M. L. Vidal,  O. Vydrov,  M. A. Watson,  J. Wenzel,  M. de Wergifosse,  
 T. A. Wesolowski,  A. White,  J. Witte,  A. Yamada,  Jun Yang,  K. Yao,  
 S. Yeganeh,  S. R. Yost,  Zhi-Qiang You,  A. Zech,  Igor Ying Zhang,  
 Xing Zhang,  Yan Zhao,  Ying Zhu,  B. R. Brooks,  G. K. L. Chan,  
 C. J. Cramer,  M. S. Gordon,  W. J. Hehre,  A. Klamt,  M. W. Schmidt,  
 C. D. Sherrill,  D. G. Truhlar,  A. Aspuru-Guzik,  R. Baer,  A. T. Bell,  
 N. A. Besley,  Jeng-Da Chai,  A. E. DePrince, III,  R. A. DiStasio Jr.,  
 A. Dreuw,  B. D. Dunietz,  T. R. Furlani,  Chao-Ping Hsu,  Yousung Jung,  
 Jing Kong,  D. S. Lambrecht,  WanZhen Liang,  C. Ochsenfeld,  
 V. A. Rassolov,  L. V. Slipchenko,  J. E. Subotnik,  T. Van Voorhis,  
 J. M. Herbert,  A. I. Krylov,  P. M. W. Gill,  M. Head-Gordon

 Contributors to earlier versions of Q-Chem not listed above: 
 R. D. Adamson,  B. Austin,  J. Baker,  G. J. O. Beran,  K. Brandhorst,  
 S. T. Brown,  E. F. C. Byrd,  A. K. Chakraborty,  C.-L. Cheng,  
 Siu Hung Chien,  D. M. Chipman,  D. L. Crittenden,  H. Dachsel,  
 R. J. Doerksen,  A. D. Dutoi,  L. Fusti-Molnar,  W. A. Goddard III,  
 A. Golubeva-Zadorozhnaya,  S. R. Gwaltney,  G. Hawkins,  A. Heyden,  
 S. Hirata,  G. Kedziora,  F. J. Keil,  C. Kelley,  Jihan Kim,  R. A. King,  
 R. Z. Khaliullin,  P. P. Korambath,  W. Kurlancheek,  A. M. Lee,  M. S. Lee,  
 S. V. Levchenko,  Ching Yeh Lin,  D. Liotard,  R. C. Lochan,  I. Lotan,  
 P. E. Maslen,  N. Nair,  D. P. O'Neill,  D. Neuhauser,  E. Neuscamman,  
 C. M. Oana,  R. Olson,  B. Peters,  R. Peverati,  P. A. Pieniazek,  
 Y. M. Rhee,  J. Ritchie,  M. A. Rohrdanz,  E. Rosta,  N. J. Russ,  
 H. F. Schaefer III,  N. E. Schultz,  N. Shenvi,  A. C. Simmonett,  A. Sodt,  
 D. Stuck,  K. S. Thanthiriwatte,  V. Vanovschi,  Tao Wang,  A. Warshel,  
 C. F. Williams,  Q. Wu,  X. Xu,  W. Zhang

 Please cite Q-Chem as follows:
 Y. Shao et al., Mol. Phys. 113, 184-215 (2015)
 DOI: 10.1080/00268976.2014.952696

 Q-Chem 5.3.0 for Intel X86 EM64T Linux

 Parts of Q-Chem use Armadillo 9.800.1 (Horizon Scraper).
 http://arma.sourceforge.net/

 Q-Chem begins on Mon Jul 13 15:37:44 2020  

Host: centos77-c5
0

     Scratch files written to /tmp/29025.centos77-h1/qchem90527//
Processing $rem in /opt/qchem-5.3.0-intel2020u1//config/preferences:
Processing $rem in /home/shihchengli/.qchemrc:

Checking the input file for inconsistencies... 	...done.

--------------------------------------------------------------
User input:
--------------------------------------------------------------
$rem
   JOBTYPE  sp
   EXCHANGE   omegaB97X-D
   BASIS   6-311+G(2df,2pd)
   UNRESTRICTED   True
   max_scf_cycles   250
   geom_opt_max_cycles   1500
   basis2 6-31G*
   scf_algorithm rca_diis
   SYM_IGNORE  TRUE
   print_input   true
   geom_opt_dmax   80
   pop_mulliken false
   XC_GRID 000075000302
$end

$molecule
0 3
N       0.6629392900     1.2449603220     2.4505037533
O       0.3293635206     2.2226640804     1.8056344184
O       1.5293394000     0.8713764995     3.1577659724
N       0.0425538155     -1.1228072255     3.1467085379
O       -0.5160253142     -1.3570248937     4.1574096404
O       -0.1031795819     0.2358203272     2.3822775676
$end
--------------------------------------------------------------
 ----------------------------------------------------------------
             Standard Nuclear Orientation (Angstroms)
    I     Atom           X                Y                Z
 ----------------------------------------------------------------
    1      N       0.6629392900     1.2449603220     2.4505037533
    2      O       0.3293635206     2.2226640804     1.8056344184
    3      O       1.5293394000     0.8713764995     3.1577659724
    4      N       0.0425538155    -1.1228072255     3.1467085379
    5      O      -0.5160253142    -1.3570248937     4.1574096404
    6      O      -0.1031795819     0.2358203272     2.3822775676
 ----------------------------------------------------------------
 Nuclear Repulsion Energy =         237.18730721 hartrees
 There are       24 alpha and       22 beta electrons
 Requested basis set is 6-311+G(2df,2pd)
 There are 48 shells and 204 basis functions

 Total QAlloc Memory Limit   2000 MB
 Mega-Array Size       188 MB
 MEM_STATIC part       192 MB

                       Distance Matrix (Angstroms)
             N (  1)   O (  2)   O (  3)   N (  4)   O (  5)
   O (  2)  1.217799
   O (  3)  1.179167  2.257029
   N (  4)  2.544779  3.615649  2.487453
   O (  5)  3.327734  4.365742  3.185683  1.178298
   O (  6)  1.268841  2.113565  1.915837  1.565714  2.420473
 
 A cutoff of  1.0D-09 yielded   1030 shell pairs
 There are     19141 function pairs (     25087 Cartesian)
 Smallest overlap matrix eigenvalue = 5.97E-04

 Scale SEOQF with 1.000000e-01/1.000000e-01/1.000000e-01

 Standard Electronic Orientation quadrupole field applied
 Nucleus-field energy     =    -0.0000000363 hartrees
 Requested basis set is 6-31G(d)
 There are 24 shells and 84 basis functions
 A cutoff of  1.0D-09 yielded    269 shell pairs
 There are      3538 function pairs (      4066 Cartesian)
 Smallest overlap matrix eigenvalue = 3.77E-03
 Guess from superposition of atomic densities
 Warning:  Energy on first SCF cycle will be non-variational
 SAD guess density has 46.000000 electrons
 Long-range K will be added via erf
 Coulomb attenuation parameter = 0.2 bohr**(-1)
 An unrestricted hybrid HF-DFT SCF calculation will be
 performed using Relaxed Constraint Minimization + Pulay DIIS
 Exchange:     0.2220 Hartree-Fock + 1.0000 wB97X-D + LR-HF
 Correlation:  1.0000 wB97X-D
 Using Euler-Maclaurin-Lebedev (75,302) quadrature formula
 Dispersion:   Grimme D
 SCF converges when DIIS error is below 1.0E-04
 using 6 threads for integral computing
 -------------------------------------------------------
 OpenMP Integral computing Module                
 Release: version 1.0, May 2013, Q-Chem Inc. Pittsburgh 
 -------------------------------------------------------
 using 6 threads for integral computing
 -------------------------------------------------------
 OpenMP Integral computing Module                
 Release: version 1.0, May 2013, Q-Chem Inc. Pittsburgh 
 -------------------------------------------------------
 ---------------------------------------
  Cycle       Energy         DIIS Error
 ---------------------------------------
    1    -411.3245371272      9.34E-02
    2    -409.5991513043      1.98E-02
    3    -409.7056135384      4.79E-03
    4    -409.8600178498      4.83E-03
    5    -409.8664677599      6.17E-04 Done RCA. Switching to DIIS
    6    -409.8747037177      4.83E-04
    7    -409.8749682727      2.15E-04
    8    -409.8750748855      6.43E-05 Convergence criterion met
 ---------------------------------------
 <S^2> = 2.0147
 SCF time:  CPU 14.02 s  wall 2.35 s
 SCF   energy in the small basis set = -409.87507489
 Total energy in the small basis set = -409.87507489
 ----------------------------------------------------
  Cycle       Energy    
 ----------------------------------------------------
    1     -41.8527488521     -4.19E+01
 Long-range K will be added via erf
 Coulomb attenuation parameter = 0.2 bohr**(-1)
 An unrestricted hybrid HF-DFT SCF calculation will be
 performed using Relaxed Constraint Minimization + Pulay DIIS
 Exchange:     0.2220 Hartree-Fock + 1.0000 wB97X-D + LR-HF
 Correlation:  1.0000 wB97X-D
 Using Euler-Maclaurin-Lebedev (75,302) quadrature formula
 Dispersion:   Grimme D
 SCF converges when DIIS error is below 1.0E-05
 Basis2 calculation detected. Using small basis as guess for larger.
 SCFMinFind is unable to tell whether the solution found is close.
 Resetting ReadMinima to 0 and attempting to follow guess.
 SCFMinFind following SCF Guess.
 using 6 threads for integral computing
 -------------------------------------------------------
 OpenMP Integral computing Module                
 Release: version 1.0, May 2013, Q-Chem Inc. Pittsburgh 
 -------------------------------------------------------
 using 6 threads for integral computing
 -------------------------------------------------------
 OpenMP Integral computing Module                
 Release: version 1.0, May 2013, Q-Chem Inc. Pittsburgh 
 -------------------------------------------------------
 ---------------------------------------
  Cycle       Energy         DIIS Error
 ---------------------------------------
    1    -409.9549121008      8.11E-03
    2    -409.9618699135      4.53E-03
    3    -409.9882753330      1.18E-03
    4    -410.0256536659      1.18E-03
    5    -410.0279880884      1.53E-04 Done RCA. Switching to DIIS
    6    -410.0312448717      1.55E-04
    7    -410.0315109996      6.70E-05
    8    -410.0317125675      3.67E-05
    9    -410.0317990928      2.23E-05
   10    -410.0318343740      1.10E-05
   11    -410.0318450361      9.72E-06 Convergence criterion met
 ---------------------------------------
 <S^2> = 2.0173
 SCF time:  CPU 70.08 s  wall 11.71 s
 SCF   energy in the final basis set = -410.03184504
 Total energy in the final basis set = -410.03184504
 
 --------------------------------------------------------------
 
                    Orbital Energies (a.u.)
 --------------------------------------------------------------
 
 Alpha MOs
 -- Occupied --
-19.4131 -19.3980 -19.3535 -19.3315 -14.7810 -14.6257  -1.4855  -1.3639
 -1.2681  -1.2306  -0.9260  -0.7672  -0.7433  -0.7258  -0.6936  -0.6575
 -0.6318  -0.6138  -0.5068  -0.4987  -0.4643  -0.4555  -0.4310  -0.3440
 -- Virtual --
 -0.0239   0.0143   0.0861   0.1166   0.1317   0.1362   0.1671   0.1750
  0.1840   0.2232   0.2400   0.2413   0.2472   0.2652   0.2738   0.2853
  0.3046   0.3109   0.3314   0.3483   0.3521   0.3667   0.3773   0.3937
  0.4006   0.4299   0.4517   0.4737   0.4852   0.5481   0.7683   0.7963
  0.8029   0.8225   0.8468   0.9016   0.9124   0.9326   0.9745   1.0054
  1.0198   1.0350   1.0523   1.0755   1.0866   1.1010   1.1181   1.1238
  1.1468   1.1639   1.1719   1.2007   1.2132   1.2689   1.2796   1.3549
  1.4547   1.4923   1.5283   1.5363   1.5786   1.5898   1.6101   1.6284
  1.6493   1.6984   1.7079   1.7946   1.8355   1.9076   1.9407   1.9881
  2.0800   2.1564   2.2344   2.2746   2.3681   2.4248   2.4800   2.5068
  2.5367   2.6053   2.7604   2.8076   3.4954   3.5239   3.6021   3.6406
  3.6451   3.6651   3.6880   3.7267   3.7507   3.7712   3.8217   3.8966
  3.9661   4.0208   4.0474   4.2144   4.2824   4.4163   4.4778   4.5017
  4.5230   4.5860   4.6561   4.6745   4.6835   4.6974   4.7285   4.7976
  4.8547   4.9291   4.9918   5.0015   5.0262   5.0328   5.0471   5.0493
  5.0804   5.0982   5.1050   5.1121   5.1227   5.1414   5.1609   5.1713
  5.2525   5.2745   5.3226   5.3810   5.4069   5.4443   5.4809   5.5321
  5.5463   5.6026   5.7114   5.8004   5.8909   6.0554   6.2153   6.4289
  6.4629   6.6034   6.6251   6.7045   6.7264   6.7435   6.7610   6.7887
  6.8269   6.8379   6.8848   6.9278   7.0400   7.0795   7.1279   7.1364
  7.1482   7.1837   7.2571   7.3005   7.3084   7.4090   7.4998   7.5680
  7.6828   7.7807   7.8525   7.9459   8.0971   8.4976  35.8943  36.2368
 50.0664  50.1554  50.2264  50.3198
 
 Beta MOs
 -- Occupied --
-19.4007 -19.3800 -19.3515 -19.3308 -14.7809 -14.6071  -1.4758  -1.3254
 -1.2627  -1.2076  -0.8851  -0.7395  -0.7352  -0.7064  -0.6774  -0.6003
 -0.5842  -0.5474  -0.4822  -0.4687  -0.4619  -0.4285
 -- Virtual --
 -0.1585  -0.0195  -0.0073   0.0607   0.0893   0.1206   0.1356   0.1397
  0.1690   0.1787   0.1878   0.2242   0.2441   0.2453   0.2508   0.2696
  0.2860   0.2883   0.3102   0.3156   0.3325   0.3504   0.3535   0.3700
  0.3806   0.4016   0.4090   0.4347   0.4577   0.4765   0.5023   0.5535
  0.7752   0.8078   0.8105   0.8466   0.8562   0.9159   0.9212   0.9382
  0.9845   1.0160   1.0262   1.0419   1.0655   1.0892   1.1015   1.1139
  1.1270   1.1372   1.1589   1.1753   1.1780   1.2101   1.2267   1.2791
  1.2880   1.3736   1.4704   1.4987   1.5397   1.5432   1.5868   1.5973
  1.6298   1.6358   1.6667   1.7096   1.7351   1.7999   1.8455   1.9149
  1.9486   2.0051   2.0940   2.1695   2.2482   2.2905   2.3813   2.4315
  2.4893   2.5162   2.5474   2.6081   2.7718   2.8116   3.5256   3.5571
  3.6136   3.6487   3.6601   3.6773   3.7128   3.7320   3.7701   3.8220
  3.8709   3.9135   3.9965   4.0267   4.0612   4.2260   4.2876   4.4240
  4.4868   4.5027   4.5335   4.6087   4.6759   4.6824   4.7146   4.7353
  4.7606   4.8266   4.9061   4.9765   5.0098   5.0174   5.0502   5.0547
  5.0624   5.0723   5.1029   5.1058   5.1191   5.1326   5.1423   5.1565
  5.1810   5.2063   5.2689   5.2886   5.3346   5.3861   5.4251   5.4651
  5.5022   5.5411   5.5673   5.6277   5.7296   5.8074   5.8965   6.0781
  6.2229   6.4405   6.4763   6.6279   6.6537   6.7421   6.7660   6.7901
  6.7945   6.8116   6.8356   6.8462   6.8926   6.9579   7.0435   7.1058
  7.1316   7.1553   7.1736   7.2142   7.2772   7.3065   7.3194   7.4302
  7.5201   7.5787   7.7116   7.7844   7.8779   7.9572   8.1068   8.5014
 35.9169  36.2370  50.0774  50.1721  50.2285  50.3216
 --------------------------------------------------------------
 
 -----------------------------------------------------------------
                    Cartesian Multipole Moments
 -----------------------------------------------------------------
    Charge (ESU x 10^10)
                -0.0000
    Dipole Moment (Debye)
         X      -0.3835      Y      -0.8103      Z      -0.0099
       Tot       0.8966
    Quadrupole Moments (Debye-Ang)
        XX     -33.5089     XY      -1.2281     YY     -33.7510
        XZ      -2.3272     YZ      -0.6839     ZZ     -32.5212
    Octopole Moments (Debye-Ang^2)
       XXX     -35.0162    XXY     -13.3907    XYY     -11.6907
       YYY     -42.1929    XXZ     -97.4173    XYZ      -4.9346
       YYZ     -92.5126    XZZ     -19.4281    YZZ      -9.0101
       ZZZ    -277.7469
    Hexadecapole Moments (Debye-Ang^3)
      XXXX    -133.1373   XXXY     -60.7608   XXYY     -83.4137
      XYYY     -61.3114   YYYY    -369.8596   XXXZ     -91.1781
      XXYZ     -14.7331   XYYZ     -28.5182   YYYZ     -36.1014
      XXZZ    -324.8955   XYZZ     -37.5062   YYZZ    -338.6393
      XZZZ    -107.5395   YZZZ      -1.5723   ZZZZ   -1713.2179
 -----------------------------------------------------------------
Archival summary:
1\1\centos77-c5\SP\ProcedureUnspecified\BasisUnspecified\42(3)\shihchen\MonJul1315:38:012020MonJul1315:38:012020\0\\#,ProcedureUnspecified,BasisUnspecified,\\0,3\N\O,1,1.17917\O,1,1.2178,2,140.645\O,1,1.26884,2,102.939,3,178.482,0\N,4,1.56571,1,127.422,2,3.90737,0\O,5,1.1783,4,123.172,1,95.6729,0\\\@

 Total job time:  16.33s(wall), 88.06s(cpu) 
 Mon Jul 13 15:38:01 2020

        *************************************************************
        *                                                           *
        *  Thank you very much for using Q-Chem.  Have a nice day.  *
        *                                                           *
        *************************************************************


