                  Welcome to Q-Chem
     A Quantum Leap Into The Future Of Chemistry


 Q-Chem 5.3 (devel), Q-Chem, Inc., Pleasanton, CA (2020)

 Yihan Shao,  Zhengting Gan,  E. Epifanovsky,  A. T. B. Gilbert,  M. Wormit,  
 J. Kussmann,  A. W. Lange,  A. Behn,  Jia Deng,  Xintian Feng,  D. Ghosh,  
 M. Goldey,  P. R. Horn,  L. D. Jacobson,  I. Kaliman,  T. Kus,  A. Landau,  
 Jie Liu,  E. I. Proynov,  R. M. Richard,  R. P. Steele,  E. J. Sundstrom,  
 H. L. Woodcock III,  P. M. Zimmerman,  D. Zuev,  B. Alam,  B. Albrecht,  
 E. Alguire,  S. A. Baeppler,  D. Barton,  Z. Benda,  Y. A. Bernard,  
 E. J. Berquist,  K. B. Bravaya,  H. Burton,  K. Carter-Fenk,  D. Casanova,  
 Chun-Min Chang,  Yunqing Chen,  A. Chien,  K. D. Closser,  M. P. Coons,  
 S. Coriani,  S. Dasgupta,  A. L. Dempwolff,  M. Diedenhofen,  Hainam Do,  
 R. G. Edgar,  Po-Tung Fang,  S. Faraji,  S. Fatehi,  Qingguo Feng,  
 J. Fosso-Tande,  J. Gayvert,  Qinghui Ge,  A. Ghysels,  G. Gidofalvi,  
 J. Gomes,  J. Gonthier,  A. Gunina,  D. Hait,  M. W. D. Hanson-Heine,  
 P. H. P. Harbach,  A. W. Hauser,  M. F. Herbst,  J. E. Herr,  
 E. G. Hohenstein,  Z. C. Holden,  Kerwin Hui,  B. C. Huynh,  T.-C. Jagau,  
 Hyunjun Ji,  B. Kaduk,  K. Khistyaev,  Jaehoon Kim,  P. Klunzinger,  K. Koh,  
 D. Kosenkov,  L. Koulias,  T. Kowalczyk,  C. M. Krauter,  A. Kunitsa,  
 Ka Un Lao,  A. Laurent,  K. V. Lawler,  Joonho Lee,  D. Lefrancois,  
 S. Lehtola,  D. S. Levine,  Yi-Pei Li,  You-Sheng Lin,  Fenglai Liu,  
 Kuan-Yu Liu,  E. Livshits,  M. Loipersberger,  A. Luenser,  P. Manohar,  
 E. Mansoor,  S. F. Manzer,  Shan-Ping Mao,  Yuezhi Mao,  N. Mardirossian,  
 A. V. Marenich,  T. Markovich,  L. A. Martinez-Martinez,  S. A. Maurer,  
 N. J. Mayhall,  S. C. McKenzie,  J.-M. Mewes,  P. Morgante,  A. F. Morrison,  
 J. W. Mullinax,  K. Nanda,  T. S. Nguyen-Beck,  R. Olivares-Amaya,  
 K. J. Oosterbaan,  J. A. Parkhill,  S. K. Paul,  F. Pavosevic,  Zheng Pei,  
 T. M. Perrine,  F. Plasser,  P. Pokhilko,  S. Prager,  A. Prociuk,  
 E. Ramos,  B. Rana,  D. R. Rehn,  F. Rob,  M. Scheurer,  M. Schneider,  
 N. Sergueev,  S. M. Sharada,  S. Sharma,  D. W. Small,  T. Stauch,  
 C. J. Stein,  T. Stein,  Yu-Chuan Su,  S. P. Veccham,  Zhen Tao,  
 A. J. W. Thom,  A. Tkatchenko,  T. Tsuchimochi,  N. M. Tubman,  L. Vogt,  
 M. L. Vidal,  O. Vydrov,  M. A. Watson,  J. Wenzel,  M. de Wergifosse,  
 T. A. Wesolowski,  A. White,  J. Witte,  A. Yamada,  Jun Yang,  K. Yao,  
 S. Yeganeh,  S. R. Yost,  Zhi-Qiang You,  A. Zech,  Igor Ying Zhang,  
 Xing Zhang,  Yan Zhao,  Ying Zhu,  B. R. Brooks,  G. K. L. Chan,  
 C. J. Cramer,  M. S. Gordon,  W. J. Hehre,  A. Klamt,  M. W. Schmidt,  
 C. D. Sherrill,  D. G. Truhlar,  A. Aspuru-Guzik,  R. Baer,  A. T. Bell,  
 N. A. Besley,  Jeng-Da Chai,  A. E. DePrince, III,  R. A. DiStasio Jr.,  
 A. Dreuw,  B. D. Dunietz,  T. R. Furlani,  Chao-Ping Hsu,  Yousung Jung,  
 Jing Kong,  D. S. Lambrecht,  WanZhen Liang,  C. Ochsenfeld,  
 V. A. Rassolov,  L. V. Slipchenko,  J. E. Subotnik,  T. Van Voorhis,  
 J. M. Herbert,  A. I. Krylov,  P. M. W. Gill,  M. Head-Gordon

 Contributors to earlier versions of Q-Chem not listed above: 
 R. D. Adamson,  B. Austin,  J. Baker,  G. J. O. Beran,  K. Brandhorst,  
 S. T. Brown,  E. F. C. Byrd,  A. K. Chakraborty,  C.-L. Cheng,  
 Siu Hung Chien,  D. M. Chipman,  D. L. Crittenden,  H. Dachsel,  
 R. J. Doerksen,  A. D. Dutoi,  L. Fusti-Molnar,  W. A. Goddard III,  
 A. Golubeva-Zadorozhnaya,  S. R. Gwaltney,  G. Hawkins,  A. Heyden,  
 S. Hirata,  G. Kedziora,  F. J. Keil,  C. Kelley,  Jihan Kim,  R. A. King,  
 R. Z. Khaliullin,  P. P. Korambath,  W. Kurlancheek,  A. M. Lee,  M. S. Lee,  
 S. V. Levchenko,  Ching Yeh Lin,  D. Liotard,  R. C. Lochan,  I. Lotan,  
 P. E. Maslen,  N. Nair,  D. P. O'Neill,  D. Neuhauser,  E. Neuscamman,  
 C. M. Oana,  R. Olson,  B. Peters,  R. Peverati,  P. A. Pieniazek,  
 Y. M. Rhee,  J. Ritchie,  M. A. Rohrdanz,  E. Rosta,  N. J. Russ,  
 H. F. Schaefer III,  N. E. Schultz,  N. Shenvi,  A. C. Simmonett,  A. Sodt,  
 D. Stuck,  K. S. Thanthiriwatte,  V. Vanovschi,  Tao Wang,  A. Warshel,  
 C. F. Williams,  Q. Wu,  X. Xu,  W. Zhang

 Please cite Q-Chem as follows:
 Y. Shao et al., Mol. Phys. 113, 184-215 (2015)
 DOI: 10.1080/00268976.2014.952696

 Q-Chem 5.3.0 for Intel X86 EM64T Linux

 Parts of Q-Chem use Armadillo 9.800.1 (Horizon Scraper).
 http://arma.sourceforge.net/

 Q-Chem begins on Mon Jul 13 15:23:14 2020  

Host: centos77-c5
0

     Scratch files written to /tmp/29025.centos77-h1/qchem92386//
Processing $rem in /opt/qchem-5.3.0-intel2020u1//config/preferences:
Processing $rem in /home/shihchengli/.qchemrc:

Checking the input file for inconsistencies... 	...done.

--------------------------------------------------------------
User input:
--------------------------------------------------------------
$rem
   JOBTYPE  sp
   EXCHANGE   omegaB97X-D
   BASIS   6-311+G(2df,2pd)
   UNRESTRICTED   True
   max_scf_cycles   250
   geom_opt_max_cycles   1500
   basis2 6-31G*
   scf_algorithm rca_diis
   SYM_IGNORE  TRUE
   print_input   true
   geom_opt_dmax   80
   pop_mulliken false
   XC_GRID 000075000302
$end

$molecule
0 3
N       0.6237262269     1.1603542711     2.4802244760
O       0.4371615903     2.1896756968     1.9104632832
O       1.4678598081     0.8199281836     3.2393383102
N       0.1311576579     -1.0624578320     3.1404133522
O       -0.3723820825     -1.2100459296     4.1778541706
O       -0.3425320706     0.1975347201     2.1520062977
$end
--------------------------------------------------------------
 ----------------------------------------------------------------
             Standard Nuclear Orientation (Angstroms)
    I     Atom           X                Y                Z
 ----------------------------------------------------------------
    1      N       0.6237262269     1.1603542711     2.4802244760
    2      O       0.4371615903     2.1896756968     1.9104632832
    3      O       1.4678598081     0.8199281836     3.2393383102
    4      N       0.1311576579    -1.0624578320     3.1404133522
    5      O      -0.3723820825    -1.2100459296     4.1778541706
    6      O      -0.3425320706     0.1975347201     2.1520062977
 ----------------------------------------------------------------
 Nuclear Repulsion Energy =         236.38658321 hartrees
 There are       24 alpha and       22 beta electrons
 Requested basis set is 6-311+G(2df,2pd)
 There are 48 shells and 204 basis functions

 Total QAlloc Memory Limit   2000 MB
 Mega-Array Size       188 MB
 MEM_STATIC part       192 MB

                       Distance Matrix (Angstroms)
             N (  1)   O (  2)   O (  3)   N (  4)   O (  5)
   O (  2)  1.191191
   O (  3)  1.185203  2.168976
   N (  4)  2.370520  3.490385  2.310830
   O (  5)  3.081067  4.165877  2.896221  1.162591
   O (  6)  1.402998  2.152880  2.201632  1.670004  2.467029
 
 A cutoff of  1.0D-09 yielded   1047 shell pairs
 There are     19542 function pairs (     25657 Cartesian)
 Smallest overlap matrix eigenvalue = 4.99E-04

 Scale SEOQF with 1.000000e-01/1.000000e-01/1.000000e-01

 Standard Electronic Orientation quadrupole field applied
 Nucleus-field energy     =    -0.0000000370 hartrees
 Requested basis set is 6-31G(d)
 There are 24 shells and 84 basis functions
 A cutoff of  1.0D-09 yielded    269 shell pairs
 There are      3538 function pairs (      4066 Cartesian)
 Smallest overlap matrix eigenvalue = 4.86E-03
 Guess from superposition of atomic densities
 Warning:  Energy on first SCF cycle will be non-variational
 SAD guess density has 46.000000 electrons
 Long-range K will be added via erf
 Coulomb attenuation parameter = 0.2 bohr**(-1)
 An unrestricted hybrid HF-DFT SCF calculation will be
 performed using Relaxed Constraint Minimization + Pulay DIIS
 Exchange:     0.2220 Hartree-Fock + 1.0000 wB97X-D + LR-HF
 Correlation:  1.0000 wB97X-D
 Using Euler-Maclaurin-Lebedev (75,302) quadrature formula
 Dispersion:   Grimme D
 SCF converges when DIIS error is below 1.0E-04
 using 6 threads for integral computing
 -------------------------------------------------------
 OpenMP Integral computing Module                
 Release: version 1.0, May 2013, Q-Chem Inc. Pittsburgh 
 -------------------------------------------------------
 using 6 threads for integral computing
 -------------------------------------------------------
 OpenMP Integral computing Module                
 Release: version 1.0, May 2013, Q-Chem Inc. Pittsburgh 
 -------------------------------------------------------
 ---------------------------------------
  Cycle       Energy         DIIS Error
 ---------------------------------------
    1    -411.0755256408      8.92E-02
    2    -409.6483676617      1.97E-02
    3    -409.7538217304      4.43E-03
    4    -409.9042315372      4.66E-03
    5    -409.9103399058      6.22E-04 Done RCA. Switching to DIIS
    6    -409.9184391217      5.28E-04
    7    -409.9188214582      8.80E-05 Convergence criterion met
 ---------------------------------------
 <S^2> = 2.0151
 SCF time:  CPU 13.54 s  wall 2.27 s
 SCF   energy in the small basis set = -409.91882146
 Total energy in the small basis set = -409.91882146
 ----------------------------------------------------
  Cycle       Energy    
 ----------------------------------------------------
    1     -41.7810349135     -4.18E+01
 Long-range K will be added via erf
 Coulomb attenuation parameter = 0.2 bohr**(-1)
 An unrestricted hybrid HF-DFT SCF calculation will be
 performed using Relaxed Constraint Minimization + Pulay DIIS
 Exchange:     0.2220 Hartree-Fock + 1.0000 wB97X-D + LR-HF
 Correlation:  1.0000 wB97X-D
 Using Euler-Maclaurin-Lebedev (75,302) quadrature formula
 Dispersion:   Grimme D
 SCF converges when DIIS error is below 1.0E-05
 Basis2 calculation detected. Using small basis as guess for larger.
 SCFMinFind is unable to tell whether the solution found is close.
 Resetting ReadMinima to 0 and attempting to follow guess.
 SCFMinFind following SCF Guess.
 using 6 threads for integral computing
 -------------------------------------------------------
 OpenMP Integral computing Module                
 Release: version 1.0, May 2013, Q-Chem Inc. Pittsburgh 
 -------------------------------------------------------
 using 6 threads for integral computing
 -------------------------------------------------------
 OpenMP Integral computing Module                
 Release: version 1.0, May 2013, Q-Chem Inc. Pittsburgh 
 -------------------------------------------------------
 ---------------------------------------
  Cycle       Energy         DIIS Error
 ---------------------------------------
    1    -410.0064213306      8.04E-03
    2    -410.0139968457      4.25E-03
    3    -410.0360644086      1.21E-03
    4    -410.0677136809      1.20E-03
    5    -410.0701470532      1.62E-04 Done RCA. Switching to DIIS
    6    -410.0737870482      1.60E-04
    7    -410.0739683396      5.39E-05
    8    -410.0740639247      2.32E-05
    9    -410.0740979742      1.17E-05
   10    -410.0741084794      5.83E-06 Convergence criterion met
 ---------------------------------------
 <S^2> = 2.0181
 SCF time:  CPU 67.43 s  wall 11.27 s
 SCF   energy in the final basis set = -410.07410848
 Total energy in the final basis set = -410.07410848
 
 --------------------------------------------------------------
 
                    Orbital Energies (a.u.)
 --------------------------------------------------------------
 
 Alpha MOs
 -- Occupied --
-19.4158 -19.4012 -19.3461 -19.3409 -14.7712 -14.6183  -1.4464  -1.3736
 -1.2560  -1.2145  -0.8649  -0.7794  -0.7206  -0.7196  -0.6913  -0.6576
 -0.6374  -0.6329  -0.5001  -0.4961  -0.4615  -0.4588  -0.4437  -0.3345
 -- Virtual --
 -0.0219   0.0047   0.0776   0.1177   0.1307   0.1357   0.1388   0.1724
  0.1800   0.1852   0.2274   0.2442   0.2514   0.2704   0.2809   0.2943
  0.3085   0.3287   0.3429   0.3452   0.3532   0.3589   0.3679   0.3914
  0.3997   0.4338   0.4404   0.4586   0.5023   0.5219   0.7463   0.7939
  0.8018   0.8270   0.8509   0.8938   0.9338   0.9462   0.9618   1.0085
  1.0189   1.0350   1.0512   1.0633   1.0799   1.1018   1.1176   1.1295
  1.1367   1.1662   1.1722   1.1851   1.2311   1.2404   1.2610   1.2940
  1.4385   1.4931   1.5218   1.5516   1.5651   1.5934   1.6089   1.6200
  1.6758   1.6943   1.7512   1.7851   1.8494   1.9378   1.9453   1.9561
  2.0356   2.1365   2.2068   2.2721   2.3521   2.3839   2.4268   2.5087
  2.5346   2.5878   2.7189   2.8251   3.5200   3.5300   3.5551   3.6272
  3.6397   3.6688   3.6994   3.7220   3.7513   3.7741   3.8041   3.8708
  3.9598   3.9935   4.0176   4.0655   4.0941   4.4311   4.4607   4.4838
  4.5052   4.6214   4.6327   4.6484   4.6931   4.7005   4.7353   4.7723
  4.8613   4.9075   4.9894   4.9994   5.0182   5.0282   5.0433   5.0559
  5.0647   5.0749   5.1202   5.1273   5.1283   5.1443   5.1808   5.1995
  5.2283   5.2599   5.3281   5.3799   5.4155   5.4250   5.4723   5.5077
  5.5328   5.5943   5.6443   5.6968   5.8161   5.9011   6.0003   6.0908
  6.2818   6.5324   6.6776   6.6842   6.7051   6.7347   6.7401   6.7761
  6.8061   6.8316   6.8939   6.9424   6.9683   7.0372   7.0923   7.0929
  7.1702   7.1870   7.2003   7.2772   7.3392   7.3986   7.5430   7.5743
  7.6003   7.7124   7.8072   7.8770   7.9295   8.2893  35.9381  36.1321
 50.0132  50.1757  50.2437  50.2787
 
 Beta MOs
 -- Occupied --
-19.4016 -19.3840 -19.3444 -19.3410 -14.7711 -14.5997  -1.4409  -1.3368
 -1.2535  -1.1802  -0.8188  -0.7451  -0.7170  -0.7071  -0.6723  -0.6131
 -0.5853  -0.5622  -0.4801  -0.4703  -0.4603  -0.4398
 -- Virtual --
 -0.1536  -0.0192  -0.0016   0.0581   0.0861   0.1224   0.1393   0.1422
  0.1441   0.1753   0.1839   0.1893   0.2289   0.2486   0.2537   0.2718
  0.2848   0.2965   0.3149   0.3309   0.3448   0.3463   0.3553   0.3603
  0.3705   0.4000   0.4061   0.4357   0.4431   0.4672   0.5198   0.5273
  0.7542   0.8066   0.8171   0.8476   0.8643   0.8972   0.9392   0.9608
  0.9678   1.0185   1.0270   1.0482   1.0616   1.0725   1.0916   1.1130
  1.1303   1.1413   1.1433   1.1699   1.1794   1.2056   1.2459   1.2493
  1.2732   1.3172   1.4465   1.5058   1.5358   1.5552   1.5711   1.6077
  1.6243   1.6414   1.6856   1.7088   1.7674   1.7883   1.8640   1.9420
  1.9594   1.9685   2.0552   2.1520   2.2153   2.2854   2.3609   2.3967
  2.4466   2.5202   2.5367   2.5959   2.7270   2.8295   3.5463   3.5559
  3.5816   3.6400   3.6602   3.6753   3.7127   3.7285   3.7668   3.8017
  3.8647   3.8987   3.9884   4.0106   4.0198   4.0835   4.1061   4.4344
  4.4651   4.4884   4.5074   4.6358   4.6668   4.6719   4.7198   4.7253
  4.7667   4.8077   4.9005   4.9559   5.0057   5.0202   5.0477   5.0511
  5.0582   5.0666   5.0772   5.0862   5.1280   5.1329   5.1620   5.1744
  5.2097   5.2245   5.2367   5.2875   5.3456   5.4028   5.4222   5.4341
  5.4827   5.5324   5.5595   5.6027   5.6728   5.7078   5.8233   5.9083
  6.0259   6.1287   6.2893   6.5346   6.7086   6.7220   6.7245   6.7796
  6.7973   6.8004   6.8117   6.8381   6.8960   6.9469   7.0042   7.0496
  7.1109   7.1149   7.1734   7.2193   7.2286   7.2842   7.3456   7.4278
  7.5728   7.5997   7.6151   7.7398   7.8140   7.8851   7.9447   8.2917
 35.9604  36.1324  50.0283  50.1914  50.2455  50.2789
 --------------------------------------------------------------
 
 -----------------------------------------------------------------
                    Cartesian Multipole Moments
 -----------------------------------------------------------------
    Charge (ESU x 10^10)
                -0.0000
    Dipole Moment (Debye)
         X      -0.3196      Y      -0.9243      Z       0.0629
       Tot       0.9801
    Quadrupole Moments (Debye-Ang)
        XX     -32.8100     XY      -1.2607     YY     -33.7329
        XZ      -2.0231     YZ      -1.4305     ZZ     -32.2417
    Octopole Moments (Debye-Ang^2)
       XXX     -33.3156    XXY     -13.0204    XYY     -11.6259
       YYY     -42.1928    XXZ     -94.9900    XYZ      -4.8745
       YYZ     -92.1610    XZZ     -18.3352    YZZ     -12.3591
       ZZZ    -276.8296
    Hexadecapole Moments (Debye-Ang^3)
      XXXX    -123.2759   XXXY     -52.1189   XXYY     -76.0036
      XYYY     -55.7797   YYYY    -339.2659   XXXZ     -93.1896
      XXYZ     -16.5279   XYYZ     -30.4046   YYYZ     -46.4051
      XXZZ    -316.1995   XYZZ     -34.6849   YYZZ    -331.0270
      XZZZ    -111.2389   YZZZ     -24.3914   ZZZZ   -1714.4011
 -----------------------------------------------------------------
Archival summary:
1\1\centos77-c5\SP\ProcedureUnspecified\BasisUnspecified\42(3)\shihchen\MonJul1315:23:302020MonJul1315:23:302020\0\\#,ProcedureUnspecified,BasisUnspecified,\\0,3\N\O,1,1.1852\O,1,1.19119,2,131.767\O,1,1.403,2,116.311,3,178.985,0\N,4,1.67,1,100.601,2,3.61325,0\O,5,1.16259,4,120.071,1,95.6994,0\\\@

 Total job time:  15.97s(wall), 85.34s(cpu) 
 Mon Jul 13 15:23:30 2020

        *************************************************************
        *                                                           *
        *  Thank you very much for using Q-Chem.  Have a nice day.  *
        *                                                           *
        *************************************************************


