                  Welcome to Q-Chem
     A Quantum Leap Into The Future Of Chemistry


 Q-Chem 5.3 (devel), Q-Chem, Inc., Pleasanton, CA (2020)

 Yihan Shao,  Zhengting Gan,  E. Epifanovsky,  A. T. B. Gilbert,  M. Wormit,  
 J. Kussmann,  A. W. Lange,  A. Behn,  Jia Deng,  Xintian Feng,  D. Ghosh,  
 M. Goldey,  P. R. Horn,  L. D. Jacobson,  I. Kaliman,  T. Kus,  A. Landau,  
 Jie Liu,  E. I. Proynov,  R. M. Richard,  R. P. Steele,  E. J. Sundstrom,  
 H. L. Woodcock III,  P. M. Zimmerman,  D. Zuev,  B. Alam,  B. Albrecht,  
 E. Alguire,  S. A. Baeppler,  D. Barton,  Z. Benda,  Y. A. Bernard,  
 E. J. Berquist,  K. B. Bravaya,  H. Burton,  K. Carter-Fenk,  D. Casanova,  
 Chun-Min Chang,  Yunqing Chen,  A. Chien,  K. D. Closser,  M. P. Coons,  
 S. Coriani,  S. Dasgupta,  A. L. Dempwolff,  M. Diedenhofen,  Hainam Do,  
 R. G. Edgar,  Po-Tung Fang,  S. Faraji,  S. Fatehi,  Qingguo Feng,  
 J. Fosso-Tande,  J. Gayvert,  Qinghui Ge,  A. Ghysels,  G. Gidofalvi,  
 J. Gomes,  J. Gonthier,  A. Gunina,  D. Hait,  M. W. D. Hanson-Heine,  
 P. H. P. Harbach,  A. W. Hauser,  M. F. Herbst,  J. E. Herr,  
 E. G. Hohenstein,  Z. C. Holden,  Kerwin Hui,  B. C. Huynh,  T.-C. Jagau,  
 Hyunjun Ji,  B. Kaduk,  K. Khistyaev,  Jaehoon Kim,  P. Klunzinger,  K. Koh,  
 D. Kosenkov,  L. Koulias,  T. Kowalczyk,  C. M. Krauter,  A. Kunitsa,  
 Ka Un Lao,  A. Laurent,  K. V. Lawler,  Joonho Lee,  D. Lefrancois,  
 S. Lehtola,  D. S. Levine,  Yi-Pei Li,  You-Sheng Lin,  Fenglai Liu,  
 Kuan-Yu Liu,  E. Livshits,  M. Loipersberger,  A. Luenser,  P. Manohar,  
 E. Mansoor,  S. F. Manzer,  Shan-Ping Mao,  Yuezhi Mao,  N. Mardirossian,  
 A. V. Marenich,  T. Markovich,  L. A. Martinez-Martinez,  S. A. Maurer,  
 N. J. Mayhall,  S. C. McKenzie,  J.-M. Mewes,  P. Morgante,  A. F. Morrison,  
 J. W. Mullinax,  K. Nanda,  T. S. Nguyen-Beck,  R. Olivares-Amaya,  
 K. J. Oosterbaan,  J. A. Parkhill,  S. K. Paul,  F. Pavosevic,  Zheng Pei,  
 T. M. Perrine,  F. Plasser,  P. Pokhilko,  S. Prager,  A. Prociuk,  
 E. Ramos,  B. Rana,  D. R. Rehn,  F. Rob,  M. Scheurer,  M. Schneider,  
 N. Sergueev,  S. M. Sharada,  S. Sharma,  D. W. Small,  T. Stauch,  
 C. J. Stein,  T. Stein,  Yu-Chuan Su,  S. P. Veccham,  Zhen Tao,  
 A. J. W. Thom,  A. Tkatchenko,  T. Tsuchimochi,  N. M. Tubman,  L. Vogt,  
 M. L. Vidal,  O. Vydrov,  M. A. Watson,  J. Wenzel,  M. de Wergifosse,  
 T. A. Wesolowski,  A. White,  J. Witte,  A. Yamada,  Jun Yang,  K. Yao,  
 S. Yeganeh,  S. R. Yost,  Zhi-Qiang You,  A. Zech,  Igor Ying Zhang,  
 Xing Zhang,  Yan Zhao,  Ying Zhu,  B. R. Brooks,  G. K. L. Chan,  
 C. J. Cramer,  M. S. Gordon,  W. J. Hehre,  A. Klamt,  M. W. Schmidt,  
 C. D. Sherrill,  D. G. Truhlar,  A. Aspuru-Guzik,  R. Baer,  A. T. Bell,  
 N. A. Besley,  Jeng-Da Chai,  A. E. DePrince, III,  R. A. DiStasio Jr.,  
 A. Dreuw,  B. D. Dunietz,  T. R. Furlani,  Chao-Ping Hsu,  Yousung Jung,  
 Jing Kong,  D. S. Lambrecht,  WanZhen Liang,  C. Ochsenfeld,  
 V. A. Rassolov,  L. V. Slipchenko,  J. E. Subotnik,  T. Van Voorhis,  
 J. M. Herbert,  A. I. Krylov,  P. M. W. Gill,  M. Head-Gordon

 Contributors to earlier versions of Q-Chem not listed above: 
 R. D. Adamson,  B. Austin,  J. Baker,  G. J. O. Beran,  K. Brandhorst,  
 S. T. Brown,  E. F. C. Byrd,  A. K. Chakraborty,  C.-L. Cheng,  
 Siu Hung Chien,  D. M. Chipman,  D. L. Crittenden,  H. Dachsel,  
 R. J. Doerksen,  A. D. Dutoi,  L. Fusti-Molnar,  W. A. Goddard III,  
 A. Golubeva-Zadorozhnaya,  S. R. Gwaltney,  G. Hawkins,  A. Heyden,  
 S. Hirata,  G. Kedziora,  F. J. Keil,  C. Kelley,  Jihan Kim,  R. A. King,  
 R. Z. Khaliullin,  P. P. Korambath,  W. Kurlancheek,  A. M. Lee,  M. S. Lee,  
 S. V. Levchenko,  Ching Yeh Lin,  D. Liotard,  R. C. Lochan,  I. Lotan,  
 P. E. Maslen,  N. Nair,  D. P. O'Neill,  D. Neuhauser,  E. Neuscamman,  
 C. M. Oana,  R. Olson,  B. Peters,  R. Peverati,  P. A. Pieniazek,  
 Y. M. Rhee,  J. Ritchie,  M. A. Rohrdanz,  E. Rosta,  N. J. Russ,  
 H. F. Schaefer III,  N. E. Schultz,  N. Shenvi,  A. C. Simmonett,  A. Sodt,  
 D. Stuck,  K. S. Thanthiriwatte,  V. Vanovschi,  Tao Wang,  A. Warshel,  
 C. F. Williams,  Q. Wu,  X. Xu,  W. Zhang

 Please cite Q-Chem as follows:
 Y. Shao et al., Mol. Phys. 113, 184-215 (2015)
 DOI: 10.1080/00268976.2014.952696

 Q-Chem 5.3.0 for Intel X86 EM64T Linux

 Parts of Q-Chem use Armadillo 9.800.1 (Horizon Scraper).
 http://arma.sourceforge.net/

 Q-Chem begins on Mon Jul 13 15:52:23 2020  

Host: centos77-c5
0

     Scratch files written to /tmp/29025.centos77-h1/qchem88242//
Processing $rem in /opt/qchem-5.3.0-intel2020u1//config/preferences:
Processing $rem in /home/shihchengli/.qchemrc:

Checking the input file for inconsistencies... 	...done.

--------------------------------------------------------------
User input:
--------------------------------------------------------------
$rem
   JOBTYPE  sp
   EXCHANGE   omegaB97X-D
   BASIS   6-311+G(2df,2pd)
   UNRESTRICTED   True
   max_scf_cycles   250
   geom_opt_max_cycles   1500
   basis2 6-31G*
   scf_algorithm rca_diis
   SYM_IGNORE  TRUE
   print_input   true
   geom_opt_dmax   80
   pop_mulliken false
   XC_GRID 000075000302
$end

$molecule
0 3
N       0.7048294897     1.1951485449     2.4960387512
O       0.3756232324     2.1904397653     1.8519457479
O       1.5907601690     0.9864667377     3.1841788596
N       0.0344265321     -1.1503016234     3.1397210259
O       -0.4754703515     -1.3247378808     4.1730774589
O       -0.2851779415     0.1979735663     2.2553380466
$end
--------------------------------------------------------------
 ----------------------------------------------------------------
             Standard Nuclear Orientation (Angstroms)
    I     Atom           X                Y                Z
 ----------------------------------------------------------------
    1      N       0.7048294897     1.1951485449     2.4960387512
    2      O       0.3756232324     2.1904397653     1.8519457479
    3      O       1.5907601690     0.9864667377     3.1841788596
    4      N       0.0344265321    -1.1503016234     3.1397210259
    5      O      -0.4754703515    -1.3247378808     4.1730774589
    6      O      -0.2851779415     0.1979735663     2.2553380466
 ----------------------------------------------------------------
 Nuclear Repulsion Energy =         231.82571250 hartrees
 There are       24 alpha and       22 beta electrons
 Requested basis set is 6-311+G(2df,2pd)
 There are 48 shells and 204 basis functions

 Total QAlloc Memory Limit   2000 MB
 Mega-Array Size       188 MB
 MEM_STATIC part       192 MB

                       Distance Matrix (Angstroms)
             N (  1)   O (  2)   O (  3)   N (  4)   O (  5)
   O (  2)  1.230381
   O (  3)  1.141034  2.168168
   N (  4)  2.522876  3.596572  2.643848
   O (  5)  3.248907  4.297498  3.254058  1.165439
   O (  6)  1.425626  2.137593  2.236875  1.643815  2.456132
 
 A cutoff of  1.0D-09 yielded   1026 shell pairs
 There are     19164 function pairs (     25153 Cartesian)
 Smallest overlap matrix eigenvalue = 6.61E-04

 Scale SEOQF with 1.000000e-01/1.000000e-01/1.000000e-01

 Standard Electronic Orientation quadrupole field applied
 Nucleus-field energy     =    -0.0000000363 hartrees
 Requested basis set is 6-31G(d)
 There are 24 shells and 84 basis functions
 A cutoff of  1.0D-09 yielded    268 shell pairs
 There are      3534 function pairs (      4062 Cartesian)
 Smallest overlap matrix eigenvalue = 4.57E-03
 Guess from superposition of atomic densities
 Warning:  Energy on first SCF cycle will be non-variational
 SAD guess density has 46.000000 electrons
 Long-range K will be added via erf
 Coulomb attenuation parameter = 0.2 bohr**(-1)
 An unrestricted hybrid HF-DFT SCF calculation will be
 performed using Relaxed Constraint Minimization + Pulay DIIS
 Exchange:     0.2220 Hartree-Fock + 1.0000 wB97X-D + LR-HF
 Correlation:  1.0000 wB97X-D
 Using Euler-Maclaurin-Lebedev (75,302) quadrature formula
 Dispersion:   Grimme D
 SCF converges when DIIS error is below 1.0E-04
 using 6 threads for integral computing
 -------------------------------------------------------
 OpenMP Integral computing Module                
 Release: version 1.0, May 2013, Q-Chem Inc. Pittsburgh 
 -------------------------------------------------------
 using 6 threads for integral computing
 -------------------------------------------------------
 OpenMP Integral computing Module                
 Release: version 1.0, May 2013, Q-Chem Inc. Pittsburgh 
 -------------------------------------------------------
 ---------------------------------------
  Cycle       Energy         DIIS Error
 ---------------------------------------
    1    -411.0505172533      8.91E-02
    2    -409.6561822579      1.95E-02
    3    -409.7580170421      4.64E-03
    4    -409.9038678243      5.15E-03
    5    -409.9112022907      7.25E-04 Done RCA. Switching to DIIS
    6    -409.9207978269      7.11E-04
    7    -409.9212736397      1.92E-04
    8    -409.9213738289      8.09E-05 Convergence criterion met
 ---------------------------------------
 <S^2> = 2.0156
 SCF time:  CPU 14.19 s  wall 2.38 s
 SCF   energy in the small basis set = -409.92137383
 Total energy in the small basis set = -409.92137383
 ----------------------------------------------------
  Cycle       Energy    
 ----------------------------------------------------
    1     -41.7633226521     -4.18E+01
 Long-range K will be added via erf
 Coulomb attenuation parameter = 0.2 bohr**(-1)
 An unrestricted hybrid HF-DFT SCF calculation will be
 performed using Relaxed Constraint Minimization + Pulay DIIS
 Exchange:     0.2220 Hartree-Fock + 1.0000 wB97X-D + LR-HF
 Correlation:  1.0000 wB97X-D
 Using Euler-Maclaurin-Lebedev (75,302) quadrature formula
 Dispersion:   Grimme D
 SCF converges when DIIS error is below 1.0E-05
 Basis2 calculation detected. Using small basis as guess for larger.
 SCFMinFind is unable to tell whether the solution found is close.
 Resetting ReadMinima to 0 and attempting to follow guess.
 SCFMinFind following SCF Guess.
 using 6 threads for integral computing
 -------------------------------------------------------
 OpenMP Integral computing Module                
 Release: version 1.0, May 2013, Q-Chem Inc. Pittsburgh 
 -------------------------------------------------------
 using 6 threads for integral computing
 -------------------------------------------------------
 OpenMP Integral computing Module                
 Release: version 1.0, May 2013, Q-Chem Inc. Pittsburgh 
 -------------------------------------------------------
 ---------------------------------------
  Cycle       Energy         DIIS Error
 ---------------------------------------
    1    -410.0042979266      8.09E-03
    2    -409.9980022881      4.82E-03
    3    -410.0250040963      1.61E-03
    4    -410.0653539369      1.05E-03
    5    -410.0703855248      5.59E-04 Done RCA. Switching to DIIS
    6    -410.0741666856      8.94E-04
    7    -410.0772234053      6.41E-05
    8    -410.0773497955      2.37E-05
    9    -410.0773884884      1.52E-05
   10    -410.0774030506      1.10E-05
   11    -410.0774062860      5.57E-06 Convergence criterion met
 ---------------------------------------
 <S^2> = 2.0180
 SCF time:  CPU 69.35 s  wall 11.59 s
 SCF   energy in the final basis set = -410.07740629
 Total energy in the final basis set = -410.07740629
 
 --------------------------------------------------------------
 
                    Orbital Energies (a.u.)
 --------------------------------------------------------------
 
 Alpha MOs
 -- Occupied --
-19.4116 -19.3991 -19.3623 -19.3403 -14.7740 -14.6187  -1.4546  -1.3712
 -1.2633  -1.2005  -0.8716  -0.7781  -0.7233  -0.7227  -0.6896  -0.6564
 -0.6356  -0.6331  -0.5004  -0.4980  -0.4690  -0.4617  -0.4332  -0.3396
 -- Virtual --
 -0.0233   0.0119   0.0740   0.1138   0.1239   0.1353   0.1374   0.1710
  0.1780   0.1855   0.2264   0.2410   0.2498   0.2618   0.2718   0.2870
  0.3040   0.3249   0.3416   0.3440   0.3526   0.3598   0.3669   0.3855
  0.3968   0.4335   0.4418   0.4643   0.4950   0.5470   0.7357   0.7593
  0.8019   0.8277   0.8640   0.8753   0.9271   0.9493   0.9748   1.0182
  1.0278   1.0472   1.0567   1.0746   1.0764   1.0820   1.1242   1.1266
  1.1427   1.1601   1.1615   1.1651   1.2177   1.2468   1.2557   1.3131
  1.4446   1.4730   1.5084   1.5521   1.5656   1.5877   1.6004   1.6255
  1.6474   1.6799   1.7099   1.7899   1.8115   1.8936   1.9239   1.9490
  1.9887   2.1265   2.1934   2.2427   2.3407   2.3713   2.4414   2.4926
  2.5354   2.5708   2.6884   2.8033   3.5007   3.5382   3.5772   3.6118
  3.6292   3.6623   3.6816   3.7101   3.7221   3.7711   3.7949   3.8914
  3.9520   3.9967   4.0343   4.0725   4.0801   4.3976   4.4270   4.4796
  4.4871   4.5948   4.6422   4.6815   4.6900   4.7156   4.7352   4.7826
  4.8324   4.9058   4.9934   5.0038   5.0187   5.0235   5.0388   5.0424
  5.0661   5.0868   5.0917   5.1074   5.1197   5.1492   5.1738   5.1813
  5.2017   5.2680   5.2936   5.3751   5.4121   5.4415   5.4668   5.5010
  5.5312   5.5433   5.6280   5.6614   5.8513   5.8558   5.9640   6.1093
  6.3289   6.5058   6.6615   6.6691   6.7043   6.7283   6.7390   6.7610
  6.7921   6.8223   6.8741   6.9553   6.9840   7.0010   7.0921   7.1060
  7.1592   7.1699   7.1981   7.2671   7.3026   7.3708   7.4731   7.5611
  7.6614   7.7006   7.8235   7.8717   7.8967   8.3006  35.9242  36.1343
 49.9890  50.1719  50.1847  50.3267
 
 Beta MOs
 -- Occupied --
-19.3984 -19.3812 -19.3627 -19.3378 -14.7737 -14.6008  -1.4513  -1.3333
 -1.2569  -1.1692  -0.8284  -0.7461  -0.7212  -0.7083  -0.6761  -0.6064
 -0.5839  -0.5598  -0.4832  -0.4735  -0.4572  -0.4446
 -- Virtual --
 -0.1485  -0.0210  -0.0084   0.0626   0.0846   0.1207   0.1371   0.1384
  0.1415   0.1733   0.1818   0.1899   0.2275   0.2453   0.2527   0.2632
  0.2744   0.2900   0.3112   0.3267   0.3426   0.3459   0.3549   0.3620
  0.3685   0.3904   0.4077   0.4376   0.4459   0.4685   0.5139   0.5525
  0.7472   0.7669   0.8161   0.8471   0.8747   0.8829   0.9301   0.9560
  0.9868   1.0290   1.0323   1.0607   1.0675   1.0830   1.0916   1.0997
  1.1295   1.1408   1.1508   1.1655   1.1747   1.1814   1.2295   1.2559
  1.2706   1.3286   1.4613   1.4849   1.5126   1.5568   1.5700   1.5987
  1.6180   1.6473   1.6632   1.7061   1.7194   1.7937   1.8190   1.9052
  1.9294   1.9639   2.0053   2.1410   2.2045   2.2559   2.3537   2.3819
  2.4571   2.5025   2.5422   2.5779   2.6961   2.8072   3.5263   3.5734
  3.5931   3.6256   3.6479   3.6646   3.6955   3.7218   3.7358   3.7999
  3.8615   3.9113   3.9801   4.0125   4.0358   4.0881   4.0966   4.4012
  4.4312   4.4816   4.4922   4.6228   4.6803   4.6979   4.7097   4.7339
  4.7656   4.8204   4.8734   4.9562   5.0100   5.0180   5.0378   5.0408
  5.0595   5.0639   5.0802   5.0940   5.1103   5.1238   5.1383   5.1707
  5.2016   5.2102   5.2149   5.2965   5.3093   5.3968   5.4157   5.4540
  5.4782   5.5262   5.5410   5.5680   5.6478   5.6814   5.8549   5.8618
  5.9811   6.1492   6.3406   6.5085   6.6828   6.7124   6.7304   6.7633
  6.7918   6.8010   6.8041   6.8300   6.8774   6.9789   6.9904   7.0158
  7.1144   7.1197   7.1647   7.2040   7.2255   7.2756   7.3235   7.3851
  7.4995   7.5708   7.6847   7.7292   7.8420   7.8835   7.9041   8.3028
 35.9457  36.1347  50.0027  50.1875  50.1886  50.3263
 --------------------------------------------------------------
 
 -----------------------------------------------------------------
                    Cartesian Multipole Moments
 -----------------------------------------------------------------
    Charge (ESU x 10^10)
                -0.0000
    Dipole Moment (Debye)
         X       0.0652      Y      -0.9453      Z       0.3492
       Tot       1.0099
    Quadrupole Moments (Debye-Ang)
        XX     -32.4680     XY      -0.7313     YY     -34.1055
        XZ      -0.7944     YZ      -0.8347     ZZ     -30.8036
    Octopole Moments (Debye-Ang^2)
       XXX     -32.5083    XXY     -12.4701    XYY     -11.2698
       YYY     -43.2530    XXZ     -94.0415    XYZ      -3.0977
       YYZ     -92.5304    XZZ     -14.2431    YZZ      -8.8892
       ZZZ    -270.9346
    Hexadecapole Moments (Debye-Ang^3)
      XXXX    -135.9301   XXXY     -61.1960   XXYY     -83.1334
      XYYY     -64.9465   YYYY    -368.9588   XXXZ     -86.8084
      XXYZ     -13.0032   XYYZ     -27.6030   YYYZ     -43.0515
      XXZZ    -315.4868   XYZZ     -32.0491   YYZZ    -335.4667
      XZZZ     -92.8738   YZZZ      -3.8899   ZZZZ   -1689.0099
 -----------------------------------------------------------------
Archival summary:
1\1\centos77-c5\SP\ProcedureUnspecified\BasisUnspecified\42(3)\shihchen\MonJul1315:52:402020MonJul1315:52:402020\0\\#,ProcedureUnspecified,BasisUnspecified,\\0,3\N\O,1,1.14103\O,1,1.23038,2,132.175\O,1,1.42563,2,120.869,3,-179.722,0\N,4,1.64381,1,110.356,2,2.60002,0\O,5,1.16544,4,120.98,1,95.6949,0\\\@

 Total job time:  16.36s(wall), 87.96s(cpu) 
 Mon Jul 13 15:52:40 2020

        *************************************************************
        *                                                           *
        *  Thank you very much for using Q-Chem.  Have a nice day.  *
        *                                                           *
        *************************************************************


