                  Welcome to Q-Chem
     A Quantum Leap Into The Future Of Chemistry


 Q-Chem 5.3 (devel), Q-Chem, Inc., Pleasanton, CA (2020)

 Yihan Shao,  Zhengting Gan,  E. Epifanovsky,  A. T. B. Gilbert,  M. Wormit,  
 J. Kussmann,  A. W. Lange,  A. Behn,  Jia Deng,  Xintian Feng,  D. Ghosh,  
 M. Goldey,  P. R. Horn,  L. D. Jacobson,  I. Kaliman,  T. Kus,  A. Landau,  
 Jie Liu,  E. I. Proynov,  R. M. Richard,  R. P. Steele,  E. J. Sundstrom,  
 H. L. Woodcock III,  P. M. Zimmerman,  D. Zuev,  B. Alam,  B. Albrecht,  
 E. Alguire,  S. A. Baeppler,  D. Barton,  Z. Benda,  Y. A. Bernard,  
 E. J. Berquist,  K. B. Bravaya,  H. Burton,  K. Carter-Fenk,  D. Casanova,  
 Chun-Min Chang,  Yunqing Chen,  A. Chien,  K. D. Closser,  M. P. Coons,  
 S. Coriani,  S. Dasgupta,  A. L. Dempwolff,  M. Diedenhofen,  Hainam Do,  
 R. G. Edgar,  Po-Tung Fang,  S. Faraji,  S. Fatehi,  Qingguo Feng,  
 J. Fosso-Tande,  J. Gayvert,  Qinghui Ge,  A. Ghysels,  G. Gidofalvi,  
 J. Gomes,  J. Gonthier,  A. Gunina,  D. Hait,  M. W. D. Hanson-Heine,  
 P. H. P. Harbach,  A. W. Hauser,  M. F. Herbst,  J. E. Herr,  
 E. G. Hohenstein,  Z. C. Holden,  Kerwin Hui,  B. C. Huynh,  T.-C. Jagau,  
 Hyunjun Ji,  B. Kaduk,  K. Khistyaev,  Jaehoon Kim,  P. Klunzinger,  K. Koh,  
 D. Kosenkov,  L. Koulias,  T. Kowalczyk,  C. M. Krauter,  A. Kunitsa,  
 Ka Un Lao,  A. Laurent,  K. V. Lawler,  Joonho Lee,  D. Lefrancois,  
 S. Lehtola,  D. S. Levine,  Yi-Pei Li,  You-Sheng Lin,  Fenglai Liu,  
 Kuan-Yu Liu,  E. Livshits,  M. Loipersberger,  A. Luenser,  P. Manohar,  
 E. Mansoor,  S. F. Manzer,  Shan-Ping Mao,  Yuezhi Mao,  N. Mardirossian,  
 A. V. Marenich,  T. Markovich,  L. A. Martinez-Martinez,  S. A. Maurer,  
 N. J. Mayhall,  S. C. McKenzie,  J.-M. Mewes,  P. Morgante,  A. F. Morrison,  
 J. W. Mullinax,  K. Nanda,  T. S. Nguyen-Beck,  R. Olivares-Amaya,  
 K. J. Oosterbaan,  J. A. Parkhill,  S. K. Paul,  F. Pavosevic,  Zheng Pei,  
 T. M. Perrine,  F. Plasser,  P. Pokhilko,  S. Prager,  A. Prociuk,  
 E. Ramos,  B. Rana,  D. R. Rehn,  F. Rob,  M. Scheurer,  M. Schneider,  
 N. Sergueev,  S. M. Sharada,  S. Sharma,  D. W. Small,  T. Stauch,  
 C. J. Stein,  T. Stein,  Yu-Chuan Su,  S. P. Veccham,  Zhen Tao,  
 A. J. W. Thom,  A. Tkatchenko,  T. Tsuchimochi,  N. M. Tubman,  L. Vogt,  
 M. L. Vidal,  O. Vydrov,  M. A. Watson,  J. Wenzel,  M. de Wergifosse,  
 T. A. Wesolowski,  A. White,  J. Witte,  A. Yamada,  Jun Yang,  K. Yao,  
 S. Yeganeh,  S. R. Yost,  Zhi-Qiang You,  A. Zech,  Igor Ying Zhang,  
 Xing Zhang,  Yan Zhao,  Ying Zhu,  B. R. Brooks,  G. K. L. Chan,  
 C. J. Cramer,  M. S. Gordon,  W. J. Hehre,  A. Klamt,  M. W. Schmidt,  
 C. D. Sherrill,  D. G. Truhlar,  A. Aspuru-Guzik,  R. Baer,  A. T. Bell,  
 N. A. Besley,  Jeng-Da Chai,  A. E. DePrince, III,  R. A. DiStasio Jr.,  
 A. Dreuw,  B. D. Dunietz,  T. R. Furlani,  Chao-Ping Hsu,  Yousung Jung,  
 Jing Kong,  D. S. Lambrecht,  WanZhen Liang,  C. Ochsenfeld,  
 V. A. Rassolov,  L. V. Slipchenko,  J. E. Subotnik,  T. Van Voorhis,  
 J. M. Herbert,  A. I. Krylov,  P. M. W. Gill,  M. Head-Gordon

 Contributors to earlier versions of Q-Chem not listed above: 
 R. D. Adamson,  B. Austin,  J. Baker,  G. J. O. Beran,  K. Brandhorst,  
 S. T. Brown,  E. F. C. Byrd,  A. K. Chakraborty,  C.-L. Cheng,  
 Siu Hung Chien,  D. M. Chipman,  D. L. Crittenden,  H. Dachsel,  
 R. J. Doerksen,  A. D. Dutoi,  L. Fusti-Molnar,  W. A. Goddard III,  
 A. Golubeva-Zadorozhnaya,  S. R. Gwaltney,  G. Hawkins,  A. Heyden,  
 S. Hirata,  G. Kedziora,  F. J. Keil,  C. Kelley,  Jihan Kim,  R. A. King,  
 R. Z. Khaliullin,  P. P. Korambath,  W. Kurlancheek,  A. M. Lee,  M. S. Lee,  
 S. V. Levchenko,  Ching Yeh Lin,  D. Liotard,  R. C. Lochan,  I. Lotan,  
 P. E. Maslen,  N. Nair,  D. P. O'Neill,  D. Neuhauser,  E. Neuscamman,  
 C. M. Oana,  R. Olson,  B. Peters,  R. Peverati,  P. A. Pieniazek,  
 Y. M. Rhee,  J. Ritchie,  M. A. Rohrdanz,  E. Rosta,  N. J. Russ,  
 H. F. Schaefer III,  N. E. Schultz,  N. Shenvi,  A. C. Simmonett,  A. Sodt,  
 D. Stuck,  K. S. Thanthiriwatte,  V. Vanovschi,  Tao Wang,  A. Warshel,  
 C. F. Williams,  Q. Wu,  X. Xu,  W. Zhang

 Please cite Q-Chem as follows:
 Y. Shao et al., Mol. Phys. 113, 184-215 (2015)
 DOI: 10.1080/00268976.2014.952696

 Q-Chem 5.3.0 for Intel X86 EM64T Linux

 Parts of Q-Chem use Armadillo 9.800.1 (Horizon Scraper).
 http://arma.sourceforge.net/

 Q-Chem begins on Mon Jul 13 15:29:03 2020  

Host: centos77-c5
0

     Scratch files written to /tmp/29025.centos77-h1/qchem66327//
Processing $rem in /opt/qchem-5.3.0-intel2020u1//config/preferences:
Processing $rem in /home/shihchengli/.qchemrc:

Checking the input file for inconsistencies... 	...done.

--------------------------------------------------------------
User input:
--------------------------------------------------------------
$rem
   JOBTYPE  sp
   EXCHANGE   omegaB97X-D
   BASIS   6-311+G(2df,2pd)
   UNRESTRICTED   True
   max_scf_cycles   250
   geom_opt_max_cycles   1500
   basis2 6-31G*
   scf_algorithm rca_diis
   SYM_IGNORE  TRUE
   print_input   true
   geom_opt_dmax   80
   pop_mulliken false
   XC_GRID 000075000302
$end

$molecule
0 3
N       0.6726426011     1.1402332643     2.5200806935
O       0.2639899573     2.1105795619     1.9458874593
O       1.6480259070     0.9520476606     3.1698639281
N       0.1296364307     -1.2477739637     3.1093038513
O       -0.5277362821     -1.0535844029     4.0524110435
O       -0.2415674840     0.1934869897     2.3027529142
$end
--------------------------------------------------------------
 ----------------------------------------------------------------
             Standard Nuclear Orientation (Angstroms)
    I     Atom           X                Y                Z
 ----------------------------------------------------------------
    1      N       0.6726426011     1.1402332643     2.5200806935
    2      O       0.2639899573     2.1105795619     1.9458874593
    3      O       1.6480259070     0.9520476606     3.1698639281
    4      N       0.1296364307    -1.2477739637     3.1093038513
    5      O      -0.5277362821    -1.0535844029     4.0524110435
    6      O      -0.2415674840     0.1934869897     2.3027529142
 ----------------------------------------------------------------
 Nuclear Repulsion Energy =         237.58614822 hartrees
 There are       24 alpha and       22 beta electrons
 Requested basis set is 6-311+G(2df,2pd)
 There are 48 shells and 204 basis functions

 Total QAlloc Memory Limit   2000 MB
 Mega-Array Size       188 MB
 MEM_STATIC part       192 MB

                       Distance Matrix (Angstroms)
             N (  1)   O (  2)   O (  3)   N (  4)   O (  5)
   O (  2)  1.199278
   O (  3)  1.187015  2.180796
   N (  4)  2.518853  3.556702  2.673647
   O (  5)  2.932879  3.882809  3.087943  1.165890
   O (  6)  1.333919  2.014494  2.213111  1.692794  2.167575
 
 A cutoff of  1.0D-09 yielded   1046 shell pairs
 There are     19473 function pairs (     25559 Cartesian)
 Smallest overlap matrix eigenvalue = 7.09E-04

 Scale SEOQF with 1.000000e-01/1.000000e-01/1.000000e-01

 Standard Electronic Orientation quadrupole field applied
 Nucleus-field energy     =    -0.0000000363 hartrees
 Requested basis set is 6-31G(d)
 There are 24 shells and 84 basis functions
 A cutoff of  1.0D-09 yielded    268 shell pairs
 There are      3534 function pairs (      4062 Cartesian)
 Smallest overlap matrix eigenvalue = 4.65E-03
 Guess from superposition of atomic densities
 Warning:  Energy on first SCF cycle will be non-variational
 SAD guess density has 46.000000 electrons
 Long-range K will be added via erf
 Coulomb attenuation parameter = 0.2 bohr**(-1)
 An unrestricted hybrid HF-DFT SCF calculation will be
 performed using Relaxed Constraint Minimization + Pulay DIIS
 Exchange:     0.2220 Hartree-Fock + 1.0000 wB97X-D + LR-HF
 Correlation:  1.0000 wB97X-D
 Using Euler-Maclaurin-Lebedev (75,302) quadrature formula
 Dispersion:   Grimme D
 SCF converges when DIIS error is below 1.0E-04
 using 6 threads for integral computing
 -------------------------------------------------------
 OpenMP Integral computing Module                
 Release: version 1.0, May 2013, Q-Chem Inc. Pittsburgh 
 -------------------------------------------------------
 using 6 threads for integral computing
 -------------------------------------------------------
 OpenMP Integral computing Module                
 Release: version 1.0, May 2013, Q-Chem Inc. Pittsburgh 
 -------------------------------------------------------
 ---------------------------------------
  Cycle       Energy         DIIS Error
 ---------------------------------------
    1    -411.1474545415      9.07E-02
    2    -409.6576262688      1.92E-02
    3    -409.7584256985      4.31E-03
    4    -409.9020977711      4.21E-03
    5    -409.9072404583      5.47E-04 Done RCA. Switching to DIIS
    6    -409.9140127937      3.64E-04
    7    -409.9143205031      1.08E-04
    8    -409.9144300486      5.62E-05 Convergence criterion met
 ---------------------------------------
 <S^2> = 2.0193
 SCF time:  CPU 14.81 s  wall 2.48 s
 SCF   energy in the small basis set = -409.91443005
 Total energy in the small basis set = -409.91443005
 ----------------------------------------------------
  Cycle       Energy    
 ----------------------------------------------------
    1     -41.7968827934     -4.18E+01
 Long-range K will be added via erf
 Coulomb attenuation parameter = 0.2 bohr**(-1)
 An unrestricted hybrid HF-DFT SCF calculation will be
 performed using Relaxed Constraint Minimization + Pulay DIIS
 Exchange:     0.2220 Hartree-Fock + 1.0000 wB97X-D + LR-HF
 Correlation:  1.0000 wB97X-D
 Using Euler-Maclaurin-Lebedev (75,302) quadrature formula
 Dispersion:   Grimme D
 SCF converges when DIIS error is below 1.0E-05
 Basis2 calculation detected. Using small basis as guess for larger.
 SCFMinFind is unable to tell whether the solution found is close.
 Resetting ReadMinima to 0 and attempting to follow guess.
 SCFMinFind following SCF Guess.
 using 6 threads for integral computing
 -------------------------------------------------------
 OpenMP Integral computing Module                
 Release: version 1.0, May 2013, Q-Chem Inc. Pittsburgh 
 -------------------------------------------------------
 using 6 threads for integral computing
 -------------------------------------------------------
 OpenMP Integral computing Module                
 Release: version 1.0, May 2013, Q-Chem Inc. Pittsburgh 
 -------------------------------------------------------
 ---------------------------------------
  Cycle       Energy         DIIS Error
 ---------------------------------------
    1    -409.9981219365      8.07E-03
    2    -409.9978896873      4.58E-03
    3    -410.0228268069      1.48E-03
    4    -410.0594576622      1.12E-03
    5    -410.0633357546      3.51E-04 Done RCA. Switching to DIIS
    6    -410.0680850866      5.21E-04
    7    -410.0692770471      8.27E-05
    8    -410.0694969948      3.91E-05
    9    -410.0695981577      3.13E-05
   10    -410.0696354096      2.13E-05
   11    -410.0696443087      1.09E-05
   12    -410.0696469078      3.74E-06 Convergence criterion met
 ---------------------------------------
 <S^2> = 2.0223
 SCF time:  CPU 79.11 s  wall 13.22 s
 SCF   energy in the final basis set = -410.06964691
 Total energy in the final basis set = -410.06964691
 
 --------------------------------------------------------------
 
                    Orbital Energies (a.u.)
 --------------------------------------------------------------
 
 Alpha MOs
 -- Occupied --
-19.4175 -19.4019 -19.3549 -19.3494 -14.7809 -14.6023  -1.4649  -1.3771
 -1.2678  -1.2229  -0.8656  -0.7850  -0.7339  -0.7246  -0.6961  -0.6555
 -0.6316  -0.6193  -0.5209  -0.4995  -0.4705  -0.4678  -0.4436  -0.3334
 -- Virtual --
 -0.0257   0.0036   0.0864   0.1223   0.1343   0.1365   0.1608   0.1750
  0.1848   0.1864   0.2256   0.2392   0.2489   0.2621   0.2814   0.2893
  0.3030   0.3236   0.3370   0.3491   0.3571   0.3592   0.3716   0.3817
  0.4074   0.4326   0.4545   0.4594   0.5036   0.5200   0.7386   0.7673
  0.8023   0.8111   0.8466   0.8675   0.9456   0.9512   0.9607   1.0111
  1.0269   1.0324   1.0460   1.0630   1.0767   1.0886   1.1163   1.1224
  1.1462   1.1678   1.1735   1.1793   1.2224   1.2373   1.2632   1.3017
  1.4144   1.4851   1.5182   1.5452   1.5693   1.5822   1.6141   1.6244
  1.6600   1.6974   1.7791   1.7989   1.8201   1.9039   1.9455   1.9618
  2.0168   2.1379   2.1895   2.2229   2.3233   2.3703   2.3873   2.5011
  2.5367   2.5644   2.7026   2.8098   3.5308   3.5565   3.5851   3.6311
  3.6459   3.6556   3.6915   3.7173   3.7450   3.7857   3.7943   3.9293
  3.9706   3.9952   4.0078   4.0939   4.1719   4.3981   4.4330   4.4967
  4.5174   4.5867   4.6252   4.6364   4.6664   4.7149   4.7196   4.7522
  4.8484   4.9324   4.9773   5.0062   5.0139   5.0310   5.0373   5.0441
  5.0493   5.0876   5.1081   5.1154   5.1269   5.1389   5.1628   5.1775
  5.2065   5.3060   5.3153   5.3610   5.4112   5.4157   5.4692   5.5205
  5.5729   5.6074   5.6748   5.7265   5.8362   5.9601   6.0242   6.0466
  6.4352   6.5420   6.6686   6.6971   6.7135   6.7205   6.7604   6.7645
  6.7925   6.8203   6.8632   6.8836   6.9781   7.0128   7.1370   7.1451
  7.1616   7.1766   7.2193   7.2697   7.3054   7.3785   7.4794   7.5855
  7.6872   7.6970   7.8626   7.8822   7.9630   8.2632  35.9783  36.1605
 50.0243  50.1667  50.2314  50.2617
 
 Beta MOs
 -- Occupied --
-19.4036 -19.3826 -19.3500 -19.3498 -14.7811 -14.5882  -1.4567  -1.3399
 -1.2621  -1.1921  -0.8244  -0.7510  -0.7291  -0.7101  -0.6790  -0.6005
 -0.5803  -0.5581  -0.4831  -0.4750  -0.4628  -0.4457
 -- Virtual --
 -0.1650  -0.0233  -0.0006   0.0481   0.0899   0.1264   0.1368   0.1408
  0.1657   0.1801   0.1900   0.1946   0.2272   0.2426   0.2524   0.2635
  0.2821   0.2938   0.3098   0.3255   0.3385   0.3512   0.3591   0.3616
  0.3740   0.3876   0.4152   0.4360   0.4573   0.4639   0.5225   0.5275
  0.7475   0.7707   0.8146   0.8290   0.8624   0.8713   0.9508   0.9609
  0.9678   1.0206   1.0315   1.0425   1.0547   1.0756   1.0897   1.1008
  1.1197   1.1333   1.1571   1.1776   1.1835   1.2067   1.2373   1.2482
  1.2741   1.3160   1.4276   1.4989   1.5228   1.5537   1.5731   1.5973
  1.6339   1.6491   1.6821   1.7030   1.7877   1.8109   1.8359   1.9127
  1.9515   1.9784   2.0316   2.1584   2.1984   2.2371   2.3422   2.3758
  2.3981   2.5114   2.5442   2.5701   2.7117   2.8148   3.5493   3.5752
  3.6016   3.6471   3.6525   3.6635   3.7022   3.7328   3.7588   3.8103
  3.8561   3.9441   4.0015   4.0062   4.0166   4.1043   4.1791   4.4024
  4.4362   4.5020   4.5185   4.6037   4.6362   4.6600   4.6960   4.7272
  4.7537   4.7787   4.8883   4.9798   4.9951   5.0228   5.0418   5.0447
  5.0622   5.0659   5.0793   5.1039   5.1206   5.1335   5.1395   5.1743
  5.1769   5.2068   5.2157   5.3289   5.3397   5.3862   5.4175   5.4333
  5.4878   5.5475   5.5882   5.6246   5.6868   5.7517   5.8465   5.9936
  6.0406   6.0546   6.4540   6.5455   6.7090   6.7396   6.7495   6.7690
  6.7805   6.7920   6.8184   6.8400   6.8669   6.8860   7.0183   7.0318
  7.1510   7.1708   7.1736   7.2023   7.2447   7.2788   7.3282   7.3981
  7.5014   7.6014   7.7168   7.7298   7.8739   7.8909   7.9736   8.2679
 35.9951  36.1603  50.0377  50.1846  50.2365  50.2617
 --------------------------------------------------------------
 
 -----------------------------------------------------------------
                    Cartesian Multipole Moments
 -----------------------------------------------------------------
    Charge (ESU x 10^10)
                -0.0000
    Dipole Moment (Debye)
         X      -0.2737      Y      -0.6984      Z       0.0862
       Tot       0.7551
    Quadrupole Moments (Debye-Ang)
        XX     -33.3917     XY      -0.5808     YY     -33.3422
        XZ      -1.8477     YZ      -1.3054     ZZ     -31.4639
    Octopole Moments (Debye-Ang^2)
       XXX     -34.4987    XXY     -12.6125    XYY     -11.6374
       YYY     -40.8028    XXZ     -97.0357    XYZ      -2.9786
       YYZ     -90.5997    XZZ     -17.4776    YZZ     -13.4764
       ZZZ    -271.0754
    Hexadecapole Moments (Debye-Ang^3)
      XXXX    -143.8454   XXXY     -54.4143   XXYY     -79.3570
      XYYY     -54.4526   YYYY    -332.8006   XXXZ     -94.6190
      XXYZ     -18.0120   XYYZ     -30.8653   YYYZ     -54.6153
      XXZZ    -322.7903   XYZZ     -29.4548   YYZZ    -319.3920
      XZZZ    -105.1805   YZZZ     -41.3714   ZZZZ   -1662.2290
 -----------------------------------------------------------------
Archival summary:
1\1\centos77-c5\SP\ProcedureUnspecified\BasisUnspecified\42(3)\shihchen\MonJul1315:29:222020MonJul1315:29:222020\0\\#,ProcedureUnspecified,BasisUnspecified,\\0,3\N\O,1,1.18702\O,1,1.19928,2,132.095\O,1,1.33392,2,122.672,3,-179.526,0\N,4,1.69279,1,112.109,2,2.45048,0\O,5,1.16589,4,96.8902,1,95.6949,0\\\@

 Total job time:  18.16s(wall), 98.31s(cpu) 
 Mon Jul 13 15:29:22 2020

        *************************************************************
        *                                                           *
        *  Thank you very much for using Q-Chem.  Have a nice day.  *
        *                                                           *
        *************************************************************


