                  Welcome to Q-Chem
     A Quantum Leap Into The Future Of Chemistry


 Q-Chem 5.3 (devel), Q-Chem, Inc., Pleasanton, CA (2020)

 Yihan Shao,  Zhengting Gan,  E. Epifanovsky,  A. T. B. Gilbert,  M. Wormit,  
 J. Kussmann,  A. W. Lange,  A. Behn,  Jia Deng,  Xintian Feng,  D. Ghosh,  
 M. Goldey,  P. R. Horn,  L. D. Jacobson,  I. Kaliman,  T. Kus,  A. Landau,  
 Jie Liu,  E. I. Proynov,  R. M. Richard,  R. P. Steele,  E. J. Sundstrom,  
 H. L. Woodcock III,  P. M. Zimmerman,  D. Zuev,  B. Alam,  B. Albrecht,  
 E. Alguire,  S. A. Baeppler,  D. Barton,  Z. Benda,  Y. A. Bernard,  
 E. J. Berquist,  K. B. Bravaya,  H. Burton,  K. Carter-Fenk,  D. Casanova,  
 Chun-Min Chang,  Yunqing Chen,  A. Chien,  K. D. Closser,  M. P. Coons,  
 S. Coriani,  S. Dasgupta,  A. L. Dempwolff,  M. Diedenhofen,  Hainam Do,  
 R. G. Edgar,  Po-Tung Fang,  S. Faraji,  S. Fatehi,  Qingguo Feng,  
 J. Fosso-Tande,  J. Gayvert,  Qinghui Ge,  A. Ghysels,  G. Gidofalvi,  
 J. Gomes,  J. Gonthier,  A. Gunina,  D. Hait,  M. W. D. Hanson-Heine,  
 P. H. P. Harbach,  A. W. Hauser,  M. F. Herbst,  J. E. Herr,  
 E. G. Hohenstein,  Z. C. Holden,  Kerwin Hui,  B. C. Huynh,  T.-C. Jagau,  
 Hyunjun Ji,  B. Kaduk,  K. Khistyaev,  Jaehoon Kim,  P. Klunzinger,  K. Koh,  
 D. Kosenkov,  L. Koulias,  T. Kowalczyk,  C. M. Krauter,  A. Kunitsa,  
 Ka Un Lao,  A. Laurent,  K. V. Lawler,  Joonho Lee,  D. Lefrancois,  
 S. Lehtola,  D. S. Levine,  Yi-Pei Li,  You-Sheng Lin,  Fenglai Liu,  
 Kuan-Yu Liu,  E. Livshits,  M. Loipersberger,  A. Luenser,  P. Manohar,  
 E. Mansoor,  S. F. Manzer,  Shan-Ping Mao,  Yuezhi Mao,  N. Mardirossian,  
 A. V. Marenich,  T. Markovich,  L. A. Martinez-Martinez,  S. A. Maurer,  
 N. J. Mayhall,  S. C. McKenzie,  J.-M. Mewes,  P. Morgante,  A. F. Morrison,  
 J. W. Mullinax,  K. Nanda,  T. S. Nguyen-Beck,  R. Olivares-Amaya,  
 K. J. Oosterbaan,  J. A. Parkhill,  S. K. Paul,  F. Pavosevic,  Zheng Pei,  
 T. M. Perrine,  F. Plasser,  P. Pokhilko,  S. Prager,  A. Prociuk,  
 E. Ramos,  B. Rana,  D. R. Rehn,  F. Rob,  M. Scheurer,  M. Schneider,  
 N. Sergueev,  S. M. Sharada,  S. Sharma,  D. W. Small,  T. Stauch,  
 C. J. Stein,  T. Stein,  Yu-Chuan Su,  S. P. Veccham,  Zhen Tao,  
 A. J. W. Thom,  A. Tkatchenko,  T. Tsuchimochi,  N. M. Tubman,  L. Vogt,  
 M. L. Vidal,  O. Vydrov,  M. A. Watson,  J. Wenzel,  M. de Wergifosse,  
 T. A. Wesolowski,  A. White,  J. Witte,  A. Yamada,  Jun Yang,  K. Yao,  
 S. Yeganeh,  S. R. Yost,  Zhi-Qiang You,  A. Zech,  Igor Ying Zhang,  
 Xing Zhang,  Yan Zhao,  Ying Zhu,  B. R. Brooks,  G. K. L. Chan,  
 C. J. Cramer,  M. S. Gordon,  W. J. Hehre,  A. Klamt,  M. W. Schmidt,  
 C. D. Sherrill,  D. G. Truhlar,  A. Aspuru-Guzik,  R. Baer,  A. T. Bell,  
 N. A. Besley,  Jeng-Da Chai,  A. E. DePrince, III,  R. A. DiStasio Jr.,  
 A. Dreuw,  B. D. Dunietz,  T. R. Furlani,  Chao-Ping Hsu,  Yousung Jung,  
 Jing Kong,  D. S. Lambrecht,  WanZhen Liang,  C. Ochsenfeld,  
 V. A. Rassolov,  L. V. Slipchenko,  J. E. Subotnik,  T. Van Voorhis,  
 J. M. Herbert,  A. I. Krylov,  P. M. W. Gill,  M. Head-Gordon

 Contributors to earlier versions of Q-Chem not listed above: 
 R. D. Adamson,  B. Austin,  J. Baker,  G. J. O. Beran,  K. Brandhorst,  
 S. T. Brown,  E. F. C. Byrd,  A. K. Chakraborty,  C.-L. Cheng,  
 Siu Hung Chien,  D. M. Chipman,  D. L. Crittenden,  H. Dachsel,  
 R. J. Doerksen,  A. D. Dutoi,  L. Fusti-Molnar,  W. A. Goddard III,  
 A. Golubeva-Zadorozhnaya,  S. R. Gwaltney,  G. Hawkins,  A. Heyden,  
 S. Hirata,  G. Kedziora,  F. J. Keil,  C. Kelley,  Jihan Kim,  R. A. King,  
 R. Z. Khaliullin,  P. P. Korambath,  W. Kurlancheek,  A. M. Lee,  M. S. Lee,  
 S. V. Levchenko,  Ching Yeh Lin,  D. Liotard,  R. C. Lochan,  I. Lotan,  
 P. E. Maslen,  N. Nair,  D. P. O'Neill,  D. Neuhauser,  E. Neuscamman,  
 C. M. Oana,  R. Olson,  B. Peters,  R. Peverati,  P. A. Pieniazek,  
 Y. M. Rhee,  J. Ritchie,  M. A. Rohrdanz,  E. Rosta,  N. J. Russ,  
 H. F. Schaefer III,  N. E. Schultz,  N. Shenvi,  A. C. Simmonett,  A. Sodt,  
 D. Stuck,  K. S. Thanthiriwatte,  V. Vanovschi,  Tao Wang,  A. Warshel,  
 C. F. Williams,  Q. Wu,  X. Xu,  W. Zhang

 Please cite Q-Chem as follows:
 Y. Shao et al., Mol. Phys. 113, 184-215 (2015)
 DOI: 10.1080/00268976.2014.952696

 Q-Chem 5.3.0 for Intel X86 EM64T Linux

 Parts of Q-Chem use Armadillo 9.800.1 (Horizon Scraper).
 http://arma.sourceforge.net/

 Q-Chem begins on Mon Jul 13 15:46:05 2020  

Host: centos77-c5
0

     Scratch files written to /tmp/29025.centos77-h1/qchem107751//
Processing $rem in /opt/qchem-5.3.0-intel2020u1//config/preferences:
Processing $rem in /home/shihchengli/.qchemrc:

Checking the input file for inconsistencies... 	...done.

--------------------------------------------------------------
User input:
--------------------------------------------------------------
$rem
   JOBTYPE  sp
   EXCHANGE   omegaB97X-D
   BASIS   6-311+G(2df,2pd)
   UNRESTRICTED   True
   max_scf_cycles   250
   geom_opt_max_cycles   1500
   basis2 6-31G*
   scf_algorithm rca_diis
   SYM_IGNORE  TRUE
   print_input   true
   geom_opt_dmax   80
   pop_mulliken false
   XC_GRID 000075000302
$end

$molecule
0 3
N       0.7270733733     1.2624824711     2.4813688380
O       0.3950194526     2.1188329774     1.8971243738
O       1.5479640775     0.9946587062     3.1493350184
N       0.0375458862     -1.1560575685     3.1388084785
O       -0.4813471320     -1.3278102406     4.1786837084
O       -0.2812645275     0.2028827643     2.2549794730
$end
--------------------------------------------------------------
 ----------------------------------------------------------------
             Standard Nuclear Orientation (Angstroms)
    I     Atom           X                Y                Z
 ----------------------------------------------------------------
    1      N       0.7270733733     1.2624824711     2.4813688380
    2      O       0.3950194526     2.1188329774     1.8971243738
    3      O       1.5479640775     0.9946587062     3.1493350184
    4      N       0.0375458862    -1.1560575685     3.1388084785
    5      O      -0.4813471320    -1.3278102406     4.1786837084
    6      O      -0.2812645275     0.2028827643     2.2549794730
 ----------------------------------------------------------------
 Nuclear Repulsion Energy =         236.81704307 hartrees
 There are       24 alpha and       22 beta electrons
 Requested basis set is 6-311+G(2df,2pd)
 There are 48 shells and 204 basis functions

 Total QAlloc Memory Limit   2000 MB
 Mega-Array Size       188 MB
 MEM_STATIC part       192 MB

                       Distance Matrix (Angstroms)
             N (  1)   O (  2)   O (  3)   N (  4)   O (  5)
   O (  2)  1.088548
   O (  3)  1.091682  2.039873
   N (  4)  2.599425  3.520579  2.628128
   O (  5)  3.324270  4.225267  3.251388  1.174772
   O (  6)  1.480118  2.063077  2.184687  1.652124  2.466514
 
 A cutoff of  1.0D-09 yielded   1026 shell pairs
 There are     19144 function pairs (     25097 Cartesian)
 Smallest overlap matrix eigenvalue = 5.23E-04

 Scale SEOQF with 1.000000e-01/1.000000e-01/1.000000e-01

 Standard Electronic Orientation quadrupole field applied
 Nucleus-field energy     =    -0.0000000363 hartrees
 Requested basis set is 6-31G(d)
 There are 24 shells and 84 basis functions
 A cutoff of  1.0D-09 yielded    269 shell pairs
 There are      3538 function pairs (      4066 Cartesian)
 Smallest overlap matrix eigenvalue = 3.28E-03
 Guess from superposition of atomic densities
 Warning:  Energy on first SCF cycle will be non-variational
 SAD guess density has 46.000000 electrons
 Long-range K will be added via erf
 Coulomb attenuation parameter = 0.2 bohr**(-1)
 An unrestricted hybrid HF-DFT SCF calculation will be
 performed using Relaxed Constraint Minimization + Pulay DIIS
 Exchange:     0.2220 Hartree-Fock + 1.0000 wB97X-D + LR-HF
 Correlation:  1.0000 wB97X-D
 Using Euler-Maclaurin-Lebedev (75,302) quadrature formula
 Dispersion:   Grimme D
 SCF converges when DIIS error is below 1.0E-04
 using 6 threads for integral computing
 -------------------------------------------------------
 OpenMP Integral computing Module                
 Release: version 1.0, May 2013, Q-Chem Inc. Pittsburgh 
 -------------------------------------------------------
 using 6 threads for integral computing
 -------------------------------------------------------
 OpenMP Integral computing Module                
 Release: version 1.0, May 2013, Q-Chem Inc. Pittsburgh 
 -------------------------------------------------------
 ---------------------------------------
  Cycle       Energy         DIIS Error
 ---------------------------------------
    1    -411.4895701935      1.01E-01
    2    -409.6672777063      1.78E-02
    3    -409.7578820656      3.13E-03
    4    -409.8753928802      2.71E-03
    5    -409.8776223096      5.51E-04 Done RCA. Switching to DIIS
    6    -409.8810620387      4.79E-04
    7    -409.8813810933      9.36E-05 Convergence criterion met
 ---------------------------------------
 <S^2> = 2.0155
 SCF time:  CPU 12.98 s  wall 2.18 s
 SCF   energy in the small basis set = -409.88138109
 Total energy in the small basis set = -409.88138109
 ----------------------------------------------------
  Cycle       Energy    
 ----------------------------------------------------
    1     -41.9275541857     -4.19E+01
 Long-range K will be added via erf
 Coulomb attenuation parameter = 0.2 bohr**(-1)
 An unrestricted hybrid HF-DFT SCF calculation will be
 performed using Relaxed Constraint Minimization + Pulay DIIS
 Exchange:     0.2220 Hartree-Fock + 1.0000 wB97X-D + LR-HF
 Correlation:  1.0000 wB97X-D
 Using Euler-Maclaurin-Lebedev (75,302) quadrature formula
 Dispersion:   Grimme D
 SCF converges when DIIS error is below 1.0E-05
 Basis2 calculation detected. Using small basis as guess for larger.
 SCFMinFind is unable to tell whether the solution found is close.
 Resetting ReadMinima to 0 and attempting to follow guess.
 SCFMinFind following SCF Guess.
 using 6 threads for integral computing
 -------------------------------------------------------
 OpenMP Integral computing Module                
 Release: version 1.0, May 2013, Q-Chem Inc. Pittsburgh 
 -------------------------------------------------------
 using 6 threads for integral computing
 -------------------------------------------------------
 OpenMP Integral computing Module                
 Release: version 1.0, May 2013, Q-Chem Inc. Pittsburgh 
 -------------------------------------------------------
 ---------------------------------------
  Cycle       Energy         DIIS Error
 ---------------------------------------
    1    -409.9883004575      7.96E-03
    2    -410.0114143048      3.34E-03
    3    -410.0255349446      7.57E-04 Done RCA. Switching to DIIS
    4    -410.0444079742      6.61E-04
    5    -410.0457864288      1.55E-04
    6    -410.0459336870      3.92E-05
    7    -410.0459844972      2.90E-05
    8    -410.0459992017      1.09E-05
    9    -410.0460082146      5.74E-06 Convergence criterion met
 ---------------------------------------
 <S^2> = 2.0188
 SCF time:  CPU 54.85 s  wall 9.17 s
 SCF   energy in the final basis set = -410.04600821
 Total energy in the final basis set = -410.04600821
 
 --------------------------------------------------------------
 
                    Orbital Energies (a.u.)
 --------------------------------------------------------------
 
 Alpha MOs
 -- Occupied --
-19.3825 -19.3733 -19.3560 -19.3518 -14.7727 -14.6034  -1.5257  -1.3517
 -1.3476  -1.1779  -0.8560  -0.7725  -0.7657  -0.7383  -0.6963  -0.6490
 -0.6256  -0.6164  -0.5033  -0.4938  -0.4750  -0.4651  -0.4279  -0.3256
 -- Virtual --
  0.0175   0.0280   0.0758   0.1159   0.1225   0.1344   0.1381   0.1668
  0.1809   0.1837   0.2279   0.2432   0.2524   0.2739   0.2784   0.2927
  0.3067   0.3258   0.3486   0.3535   0.3582   0.3647   0.3747   0.3995
  0.4257   0.4383   0.4575   0.4888   0.5071   0.6939   0.7432   0.7709
  0.8071   0.8315   0.8627   0.8798   0.9076   0.9444   0.9783   1.0175
  1.0251   1.0481   1.0486   1.0713   1.0790   1.0970   1.1302   1.1400
  1.1506   1.1650   1.1801   1.1899   1.2392   1.2550   1.2741   1.3158
  1.4436   1.4593   1.5184   1.5381   1.5683   1.6001   1.6132   1.6450
  1.6641   1.7009   1.7421   1.8240   1.8809   1.9397   1.9576   2.0146
  2.0404   2.1515   2.2253   2.2763   2.3352   2.4387   2.4955   2.5145
  2.6056   2.6332   2.7395   2.9379   3.5091   3.5539   3.5696   3.6131
  3.6305   3.6421   3.6444   3.6920   3.7671   3.7983   3.8188   3.8941
  3.9414   3.9756   4.0455   4.0537   4.1987   4.2197   4.3464   4.3731
  4.5603   4.6122   4.6641   4.6820   4.6942   4.7416   4.7649   4.8273
  4.8536   4.9276   4.9958   5.0079   5.0160   5.0163   5.0330   5.0373
  5.0665   5.0738   5.1058   5.1326   5.1356   5.1674   5.2023   5.2113
  5.2982   5.3403   5.3758   5.4396   5.4744   5.4983   5.5096   5.5670
  5.6170   5.6501   5.7166   5.7612   5.8472   5.9851   6.0886   6.1768
  6.5892   6.6409   6.6777   6.7337   6.7427   6.7532   6.7609   6.7760
  6.7967   6.9203   6.9391   7.0014   7.0636   7.0945   7.1171   7.1789
  7.2101   7.3151   7.3684   7.4341   7.4549   7.4995   7.5738   7.6295
  7.7003   7.7246   7.9206   7.9797   8.0623   9.0117  35.9156  36.4909
 50.0133  50.1716  50.3852  50.6172
 
 Beta MOs
 -- Occupied --
-19.3646 -19.3601 -19.3542 -19.3521 -14.7724 -14.5857  -1.5233  -1.3491
 -1.3099  -1.1419  -0.8151  -0.7714  -0.7407  -0.7180  -0.6931  -0.5948
 -0.5663  -0.5458  -0.4930  -0.4762  -0.4560  -0.4534
 -- Virtual --
 -0.1280   0.0019   0.0214   0.0741   0.0893   0.1251   0.1318   0.1412
  0.1421   0.1689   0.1839   0.1898   0.2289   0.2469   0.2557   0.2756
  0.2816   0.2952   0.3141   0.3281   0.3505   0.3542   0.3609   0.3666
  0.3775   0.4112   0.4312   0.4421   0.4618   0.4949   0.5213   0.7012
  0.7471   0.7811   0.8224   0.8468   0.8773   0.8867   0.9101   0.9503
  0.9890   1.0231   1.0345   1.0526   1.0598   1.0883   1.1039   1.1108
  1.1448   1.1486   1.1613   1.1719   1.1913   1.2031   1.2519   1.2670
  1.2834   1.3278   1.4602   1.4743   1.5223   1.5405   1.5736   1.6110
  1.6363   1.6666   1.6814   1.7273   1.7507   1.8283   1.8891   1.9580
  1.9621   2.0274   2.0517   2.1699   2.2333   2.2916   2.3493   2.4522
  2.5053   2.5308   2.6080   2.6375   2.7455   2.9410   3.5304   3.5765
  3.5899   3.6311   3.6344   3.6490   3.6630   3.7178   3.7909   3.8260
  3.8756   3.9117   3.9586   4.0016   4.0595   4.0756   4.1999   4.2202
  4.3495   4.3774   4.5826   4.6168   4.6771   4.7151   4.7315   4.7763
  4.7939   4.8657   4.8780   4.9780   5.0059   5.0153   5.0204   5.0306
  5.0616   5.0722   5.0818   5.0884   5.1382   5.1419   5.1529   5.2020
  5.2302   5.2390   5.3239   5.3607   5.3914   5.4517   5.4875   5.5121
  5.5373   5.5796   5.6367   5.6750   5.7251   5.7643   5.8518   5.9894
  6.1257   6.1978   6.6039   6.6840   6.7092   6.7458   6.7574   6.7802
  6.7979   6.8141   6.8194   6.9245   6.9551   7.0203   7.0795   7.1080
  7.1292   7.2167   7.2426   7.3376   7.3713   7.4368   7.4786   7.5230
  7.5866   7.6304   7.7292   7.7586   7.9279   7.9833   8.0682   9.0138
 35.9371  36.4914  50.0277  50.1884  50.3860  50.6179
 --------------------------------------------------------------
 
 -----------------------------------------------------------------
                    Cartesian Multipole Moments
 -----------------------------------------------------------------
    Charge (ESU x 10^10)
                 0.0000
    Dipole Moment (Debye)
         X       0.4540      Y       0.3198      Z      -0.0368
       Tot       0.5566
    Quadrupole Moments (Debye-Ang)
        XX     -32.1587     XY      -0.1833     YY     -31.7487
        XZ       0.0291     YZ       2.0411     ZZ     -32.6516
    Octopole Moments (Debye-Ang^2)
       XXX     -31.4177    XXY     -10.9972    XYY      -9.6122
       YYY     -35.3560    XXZ     -93.8253    XYZ      -2.1988
       YYZ     -87.9917    XZZ     -11.9624    YZZ      -0.6890
       ZZZ    -278.9790
    Hexadecapole Moments (Debye-Ang^3)
      XXXX    -132.6434   XXXY     -60.7122   XXYY     -79.2968
      XYYY     -61.9746   YYYY    -349.0173   XXXZ     -83.0884
      XXYZ     -10.4584   XYYZ     -23.4569   YYYZ     -25.1835
      XXZZ    -315.2898   XYZZ     -30.9474   YYZZ    -325.2458
      XZZZ     -83.6501   YZZZ      21.9751   ZZZZ   -1722.5498
 -----------------------------------------------------------------
Archival summary:
1\1\centos77-c5\SP\ProcedureUnspecified\BasisUnspecified\42(3)\shihchen\MonJul1315:46:182020MonJul1315:46:182020\0\\#,ProcedureUnspecified,BasisUnspecified,\\0,3\N\O,1,1.08855\O,1,1.09168,2,138.658\O,1,1.48012,2,105.859,3,179.65,0\N,4,1.65212,1,112.059,2,-177.185,0\O,5,1.17477,4,120.568,1,95.6949,0\\\@

 Total job time:  13.72s(wall), 71.91s(cpu) 
 Mon Jul 13 15:46:18 2020

        *************************************************************
        *                                                           *
        *  Thank you very much for using Q-Chem.  Have a nice day.  *
        *                                                           *
        *************************************************************


