                  Welcome to Q-Chem
     A Quantum Leap Into The Future Of Chemistry


 Q-Chem 5.3 (devel), Q-Chem, Inc., Pleasanton, CA (2020)

 Yihan Shao,  Zhengting Gan,  E. Epifanovsky,  A. T. B. Gilbert,  M. Wormit,  
 J. Kussmann,  A. W. Lange,  A. Behn,  Jia Deng,  Xintian Feng,  D. Ghosh,  
 M. Goldey,  P. R. Horn,  L. D. Jacobson,  I. Kaliman,  T. Kus,  A. Landau,  
 Jie Liu,  E. I. Proynov,  R. M. Richard,  R. P. Steele,  E. J. Sundstrom,  
 H. L. Woodcock III,  P. M. Zimmerman,  D. Zuev,  B. Alam,  B. Albrecht,  
 E. Alguire,  S. A. Baeppler,  D. Barton,  Z. Benda,  Y. A. Bernard,  
 E. J. Berquist,  K. B. Bravaya,  H. Burton,  K. Carter-Fenk,  D. Casanova,  
 Chun-Min Chang,  Yunqing Chen,  A. Chien,  K. D. Closser,  M. P. Coons,  
 S. Coriani,  S. Dasgupta,  A. L. Dempwolff,  M. Diedenhofen,  Hainam Do,  
 R. G. Edgar,  Po-Tung Fang,  S. Faraji,  S. Fatehi,  Qingguo Feng,  
 J. Fosso-Tande,  J. Gayvert,  Qinghui Ge,  A. Ghysels,  G. Gidofalvi,  
 J. Gomes,  J. Gonthier,  A. Gunina,  D. Hait,  M. W. D. Hanson-Heine,  
 P. H. P. Harbach,  A. W. Hauser,  M. F. Herbst,  J. E. Herr,  
 E. G. Hohenstein,  Z. C. Holden,  Kerwin Hui,  B. C. Huynh,  T.-C. Jagau,  
 Hyunjun Ji,  B. Kaduk,  K. Khistyaev,  Jaehoon Kim,  P. Klunzinger,  K. Koh,  
 D. Kosenkov,  L. Koulias,  T. Kowalczyk,  C. M. Krauter,  A. Kunitsa,  
 Ka Un Lao,  A. Laurent,  K. V. Lawler,  Joonho Lee,  D. Lefrancois,  
 S. Lehtola,  D. S. Levine,  Yi-Pei Li,  You-Sheng Lin,  Fenglai Liu,  
 Kuan-Yu Liu,  E. Livshits,  M. Loipersberger,  A. Luenser,  P. Manohar,  
 E. Mansoor,  S. F. Manzer,  Shan-Ping Mao,  Yuezhi Mao,  N. Mardirossian,  
 A. V. Marenich,  T. Markovich,  L. A. Martinez-Martinez,  S. A. Maurer,  
 N. J. Mayhall,  S. C. McKenzie,  J.-M. Mewes,  P. Morgante,  A. F. Morrison,  
 J. W. Mullinax,  K. Nanda,  T. S. Nguyen-Beck,  R. Olivares-Amaya,  
 K. J. Oosterbaan,  J. A. Parkhill,  S. K. Paul,  F. Pavosevic,  Zheng Pei,  
 T. M. Perrine,  F. Plasser,  P. Pokhilko,  S. Prager,  A. Prociuk,  
 E. Ramos,  B. Rana,  D. R. Rehn,  F. Rob,  M. Scheurer,  M. Schneider,  
 N. Sergueev,  S. M. Sharada,  S. Sharma,  D. W. Small,  T. Stauch,  
 C. J. Stein,  T. Stein,  Yu-Chuan Su,  S. P. Veccham,  Zhen Tao,  
 A. J. W. Thom,  A. Tkatchenko,  T. Tsuchimochi,  N. M. Tubman,  L. Vogt,  
 M. L. Vidal,  O. Vydrov,  M. A. Watson,  J. Wenzel,  M. de Wergifosse,  
 T. A. Wesolowski,  A. White,  J. Witte,  A. Yamada,  Jun Yang,  K. Yao,  
 S. Yeganeh,  S. R. Yost,  Zhi-Qiang You,  A. Zech,  Igor Ying Zhang,  
 Xing Zhang,  Yan Zhao,  Ying Zhu,  B. R. Brooks,  G. K. L. Chan,  
 C. J. Cramer,  M. S. Gordon,  W. J. Hehre,  A. Klamt,  M. W. Schmidt,  
 C. D. Sherrill,  D. G. Truhlar,  A. Aspuru-Guzik,  R. Baer,  A. T. Bell,  
 N. A. Besley,  Jeng-Da Chai,  A. E. DePrince, III,  R. A. DiStasio Jr.,  
 A. Dreuw,  B. D. Dunietz,  T. R. Furlani,  Chao-Ping Hsu,  Yousung Jung,  
 Jing Kong,  D. S. Lambrecht,  WanZhen Liang,  C. Ochsenfeld,  
 V. A. Rassolov,  L. V. Slipchenko,  J. E. Subotnik,  T. Van Voorhis,  
 J. M. Herbert,  A. I. Krylov,  P. M. W. Gill,  M. Head-Gordon

 Contributors to earlier versions of Q-Chem not listed above: 
 R. D. Adamson,  B. Austin,  J. Baker,  G. J. O. Beran,  K. Brandhorst,  
 S. T. Brown,  E. F. C. Byrd,  A. K. Chakraborty,  C.-L. Cheng,  
 Siu Hung Chien,  D. M. Chipman,  D. L. Crittenden,  H. Dachsel,  
 R. J. Doerksen,  A. D. Dutoi,  L. Fusti-Molnar,  W. A. Goddard III,  
 A. Golubeva-Zadorozhnaya,  S. R. Gwaltney,  G. Hawkins,  A. Heyden,  
 S. Hirata,  G. Kedziora,  F. J. Keil,  C. Kelley,  Jihan Kim,  R. A. King,  
 R. Z. Khaliullin,  P. P. Korambath,  W. Kurlancheek,  A. M. Lee,  M. S. Lee,  
 S. V. Levchenko,  Ching Yeh Lin,  D. Liotard,  R. C. Lochan,  I. Lotan,  
 P. E. Maslen,  N. Nair,  D. P. O'Neill,  D. Neuhauser,  E. Neuscamman,  
 C. M. Oana,  R. Olson,  B. Peters,  R. Peverati,  P. A. Pieniazek,  
 Y. M. Rhee,  J. Ritchie,  M. A. Rohrdanz,  E. Rosta,  N. J. Russ,  
 H. F. Schaefer III,  N. E. Schultz,  N. Shenvi,  A. C. Simmonett,  A. Sodt,  
 D. Stuck,  K. S. Thanthiriwatte,  V. Vanovschi,  Tao Wang,  A. Warshel,  
 C. F. Williams,  Q. Wu,  X. Xu,  W. Zhang

 Please cite Q-Chem as follows:
 Y. Shao et al., Mol. Phys. 113, 184-215 (2015)
 DOI: 10.1080/00268976.2014.952696

 Q-Chem 5.3.0 for Intel X86 EM64T Linux

 Parts of Q-Chem use Armadillo 9.800.1 (Horizon Scraper).
 http://arma.sourceforge.net/

 Q-Chem begins on Mon Jul 13 15:46:32 2020  

Host: centos77-c5
0

     Scratch files written to /tmp/29025.centos77-h1/qchem115848//
Processing $rem in /opt/qchem-5.3.0-intel2020u1//config/preferences:
Processing $rem in /home/shihchengli/.qchemrc:

Checking the input file for inconsistencies... 	...done.

--------------------------------------------------------------
User input:
--------------------------------------------------------------
$rem
   JOBTYPE  sp
   EXCHANGE   omegaB97X-D
   BASIS   6-311+G(2df,2pd)
   UNRESTRICTED   True
   max_scf_cycles   250
   geom_opt_max_cycles   1500
   basis2 6-31G*
   scf_algorithm rca_diis
   SYM_IGNORE  TRUE
   print_input   true
   geom_opt_dmax   80
   pop_mulliken false
   XC_GRID 000075000302
$end

$molecule
0 3
N       0.6741058264     1.1927417910     2.4763183853
O       0.3766099747     2.2004305707     1.8479590456
O       1.6207155188     0.9814662321     3.2063869195
N       0.0343525022     -1.1498917040     3.1394148993
O       -0.4759147449     -1.3255520852     4.1733167223
O       -0.2848779471     0.1957943053     2.2569039180
$end
--------------------------------------------------------------
 ----------------------------------------------------------------
             Standard Nuclear Orientation (Angstroms)
    I     Atom           X                Y                Z
 ----------------------------------------------------------------
    1      N       0.6741058264     1.1927417910     2.4763183853
    2      O       0.3766099747     2.2004305707     1.8479590456
    3      O       1.6207155188     0.9814662321     3.2063869195
    4      N       0.0343525022    -1.1498917040     3.1394148993
    5      O      -0.4759147449    -1.3255520852     4.1733167223
    6      O      -0.2848779471     0.1957943053     2.2569039180
 ----------------------------------------------------------------
 Nuclear Repulsion Energy =         230.08043399 hartrees
 There are       24 alpha and       22 beta electrons
 Requested basis set is 6-311+G(2df,2pd)
 There are 48 shells and 204 basis functions

 Total QAlloc Memory Limit   2000 MB
 Mega-Array Size       188 MB
 MEM_STATIC part       192 MB

                       Distance Matrix (Angstroms)
             N (  1)   O (  2)   O (  3)   N (  4)   O (  5)
   O (  2)  1.224245
   O (  3)  1.213963  2.208846
   N (  4)  2.517323  3.606890  2.657766
   O (  5)  3.247176  4.308902  3.263916  1.166268
   O (  6)  1.400606  2.150202  2.269380  1.640611  2.454308
 
 A cutoff of  1.0D-09 yielded   1024 shell pairs
 There are     19124 function pairs (     25105 Cartesian)
 Smallest overlap matrix eigenvalue = 6.65E-04

 Scale SEOQF with 1.000000e-01/1.000000e-01/1.000000e-01

 Standard Electronic Orientation quadrupole field applied
 Nucleus-field energy     =    -0.0000000363 hartrees
 Requested basis set is 6-31G(d)
 There are 24 shells and 84 basis functions
 A cutoff of  1.0D-09 yielded    268 shell pairs
 There are      3534 function pairs (      4062 Cartesian)
 Smallest overlap matrix eigenvalue = 5.50E-03
 Guess from superposition of atomic densities
 Warning:  Energy on first SCF cycle will be non-variational
 SAD guess density has 46.000000 electrons
 Long-range K will be added via erf
 Coulomb attenuation parameter = 0.2 bohr**(-1)
 An unrestricted hybrid HF-DFT SCF calculation will be
 performed using Relaxed Constraint Minimization + Pulay DIIS
 Exchange:     0.2220 Hartree-Fock + 1.0000 wB97X-D + LR-HF
 Correlation:  1.0000 wB97X-D
 Using Euler-Maclaurin-Lebedev (75,302) quadrature formula
 Dispersion:   Grimme D
 SCF converges when DIIS error is below 1.0E-04
 using 6 threads for integral computing
 -------------------------------------------------------
 OpenMP Integral computing Module                
 Release: version 1.0, May 2013, Q-Chem Inc. Pittsburgh 
 -------------------------------------------------------
 using 6 threads for integral computing
 -------------------------------------------------------
 OpenMP Integral computing Module                
 Release: version 1.0, May 2013, Q-Chem Inc. Pittsburgh 
 -------------------------------------------------------
 ---------------------------------------
  Cycle       Energy         DIIS Error
 ---------------------------------------
    1    -410.9091949534      8.54E-02
    2    -409.6365725213      2.01E-02
    3    -409.7450822888      5.02E-03
    4    -409.9034131338      5.71E-03
    5    -409.9123127085      8.40E-04 Done RCA. Switching to DIIS
    6    -409.9240563357      8.69E-04
    7    -409.9247661688      1.22E-04
    8    -409.9248462404      8.95E-05 Convergence criterion met
 ---------------------------------------
 <S^2> = 2.0154
 SCF time:  CPU 14.33 s  wall 2.40 s
 SCF   energy in the small basis set = -409.92484624
 Total energy in the small basis set = -409.92484624
 ----------------------------------------------------
  Cycle       Energy    
 ----------------------------------------------------
    1     -41.7110168338     -4.17E+01
 Long-range K will be added via erf
 Coulomb attenuation parameter = 0.2 bohr**(-1)
 An unrestricted hybrid HF-DFT SCF calculation will be
 performed using Relaxed Constraint Minimization + Pulay DIIS
 Exchange:     0.2220 Hartree-Fock + 1.0000 wB97X-D + LR-HF
 Correlation:  1.0000 wB97X-D
 Using Euler-Maclaurin-Lebedev (75,302) quadrature formula
 Dispersion:   Grimme D
 SCF converges when DIIS error is below 1.0E-05
 Basis2 calculation detected. Using small basis as guess for larger.
 SCFMinFind is unable to tell whether the solution found is close.
 Resetting ReadMinima to 0 and attempting to follow guess.
 SCFMinFind following SCF Guess.
 using 6 threads for integral computing
 -------------------------------------------------------
 OpenMP Integral computing Module                
 Release: version 1.0, May 2013, Q-Chem Inc. Pittsburgh 
 -------------------------------------------------------
 using 6 threads for integral computing
 -------------------------------------------------------
 OpenMP Integral computing Module                
 Release: version 1.0, May 2013, Q-Chem Inc. Pittsburgh 
 -------------------------------------------------------
 ---------------------------------------
  Cycle       Energy         DIIS Error
 ---------------------------------------
    1    -410.0029802432      8.10E-03
    2    -409.9957808940      4.91E-03
    3    -410.0242204782      1.58E-03
    4    -410.0661876147      1.13E-03
    5    -410.0711132420      4.77E-04 Done RCA. Switching to DIIS
    6    -410.0761846521      7.48E-04
    7    -410.0783831355      7.38E-05
    8    -410.0785717882      2.79E-05
    9    -410.0786336358      1.73E-05
   10    -410.0786543414      9.96E-06 Convergence criterion met
 ---------------------------------------
 <S^2> = 2.0179
 SCF time:  CPU 64.07 s  wall 10.71 s
 SCF   energy in the final basis set = -410.07865434
 Total energy in the final basis set = -410.07865434
 
 --------------------------------------------------------------
 
                    Orbital Energies (a.u.)
 --------------------------------------------------------------
 
 Alpha MOs
 -- Occupied --
-19.4235 -19.4050 -19.3493 -19.3476 -14.7735 -14.6251  -1.4250  -1.3747
 -1.2351  -1.2143  -0.8816  -0.7820  -0.7173  -0.7066  -0.6877  -0.6553
 -0.6365  -0.6337  -0.5033  -0.5005  -0.4610  -0.4569  -0.4378  -0.3446
 -- Virtual --
 -0.0361   0.0053   0.0751   0.1147   0.1272   0.1352   0.1374   0.1712
  0.1784   0.1864   0.2263   0.2413   0.2485   0.2589   0.2707   0.2880
  0.3045   0.3271   0.3333   0.3426   0.3500   0.3595   0.3632   0.3839
  0.3934   0.4331   0.4396   0.4483   0.4857   0.4949   0.7378   0.7629
  0.8022   0.8270   0.8621   0.8762   0.9371   0.9524   0.9758   1.0090
  1.0231   1.0439   1.0559   1.0711   1.0811   1.0920   1.1181   1.1267
  1.1368   1.1559   1.1591   1.1665   1.2117   1.2400   1.2557   1.3199
  1.4465   1.4715   1.5119   1.5423   1.5752   1.5888   1.5993   1.6176
  1.6424   1.6706   1.6996   1.7766   1.7920   1.8727   1.9112   1.9294
  1.9773   2.1170   2.1890   2.2254   2.3384   2.3451   2.4252   2.4885
  2.5201   2.5488   2.6668   2.7650   3.4977   3.5325   3.5766   3.6208
  3.6314   3.6657   3.6929   3.7048   3.7232   3.7693   3.7904   3.8902
  3.9473   3.9632   4.0057   4.0801   4.1001   4.3959   4.4412   4.4757
  4.5782   4.5924   4.6311   4.6473   4.6868   4.7070   4.7595   4.7802
  4.8225   4.9008   4.9941   4.9967   5.0173   5.0254   5.0488   5.0546
  5.0632   5.0804   5.0859   5.1051   5.1174   5.1385   5.1588   5.1595
  5.1819   5.2538   5.3042   5.3561   5.3662   5.4164   5.4281   5.4920
  5.5282   5.5394   5.6292   5.6786   5.7992   5.8861   5.9438   6.0924
  6.2301   6.4148   6.6230   6.6579   6.6664   6.7003   6.7241   6.7361
  6.7725   6.8076   6.8222   6.8631   6.9459   6.9630   7.0672   7.0926
  7.1584   7.1763   7.1913   7.2485   7.2512   7.3285   7.4662   7.5433
  7.6507   7.6931   7.7665   7.8253   7.8953   8.0959  35.9149  36.0052
 49.9873  50.1645  50.1777  50.2040
 
 Beta MOs
 -- Occupied --
-19.4103 -19.3871 -19.3481 -19.3469 -14.7734 -14.6069  -1.4184  -1.3372
 -1.2317  -1.1832  -0.8378  -0.7478  -0.7037  -0.7005  -0.6694  -0.6059
 -0.5875  -0.5624  -0.4835  -0.4714  -0.4555  -0.4411
 -- Virtual --
 -0.1570  -0.0336  -0.0114   0.0564   0.0842   0.1201   0.1382   0.1409
  0.1416   0.1739   0.1819   0.1903   0.2275   0.2457   0.2513   0.2606
  0.2734   0.2904   0.3116   0.3288   0.3343   0.3444   0.3519   0.3613
  0.3652   0.3889   0.4050   0.4378   0.4428   0.4556   0.4921   0.5105
  0.7502   0.7715   0.8153   0.8459   0.8758   0.8818   0.9405   0.9601
  0.9872   1.0192   1.0278   1.0573   1.0688   1.0876   1.0944   1.1014
  1.1247   1.1389   1.1447   1.1635   1.1736   1.1794   1.2230   1.2488
  1.2719   1.3365   1.4600   1.4844   1.5166   1.5465   1.5834   1.5989
  1.6132   1.6392   1.6580   1.6959   1.7082   1.7798   1.8003   1.8847
  1.9176   1.9430   1.9947   2.1310   2.2014   2.2366   2.3517   2.3556
  2.4412   2.4990   2.5232   2.5583   2.6761   2.7693   3.5256   3.5677
  3.5937   3.6355   3.6496   3.6673   3.7033   3.7201   3.7371   3.7967
  3.8573   3.9096   3.9579   3.9855   4.0232   4.0946   4.1137   4.3997
  4.4449   4.4793   4.5920   4.6077   4.6424   4.6886   4.7197   4.7352
  4.7757   4.8151   4.8652   4.9508   5.0130   5.0157   5.0498   5.0530
  5.0550   5.0611   5.0757   5.0874   5.1055   5.1209   5.1347   5.1554
  5.1766   5.1917   5.2045   5.2790   5.3208   5.3683   5.3786   5.4299
  5.4391   5.5140   5.5473   5.5606   5.6572   5.6900   5.8046   5.8927
  5.9574   6.1239   6.2508   6.4167   6.6321   6.6778   6.7040   6.7269
  6.7746   6.7890   6.7990   6.8137   6.8319   6.8645   6.9677   6.9844
  7.0856   7.1144   7.1740   7.1999   7.2148   7.2582   7.2652   7.3499
  7.4927   7.5518   7.6749   7.7211   7.7771   7.8467   7.9048   8.0980
 35.9366  36.0058  50.0010  50.1803  50.1810  50.2038
 --------------------------------------------------------------
 
 -----------------------------------------------------------------
                    Cartesian Multipole Moments
 -----------------------------------------------------------------
    Charge (ESU x 10^10)
                -0.0000
    Dipole Moment (Debye)
         X      -0.4293      Y      -1.1025      Z       0.1219
       Tot       1.1894
    Quadrupole Moments (Debye-Ang)
        XX     -33.3021     XY      -1.2055     YY     -33.8826
        XZ      -2.3677     YZ      -1.7340     ZZ     -31.9507
    Octopole Moments (Debye-Ang^2)
       XXX     -34.5369    XXY     -13.4376    XYY     -11.9773
       YYY     -43.1685    XXZ     -96.4871    XYZ      -4.6861
       YYZ     -92.5445    XZZ     -19.4613    YZZ     -12.8280
       ZZZ    -275.5730
    Hexadecapole Moments (Debye-Ang^3)
      XXXX    -141.8357   XXXY     -63.1668   XXYY     -84.9290
      XYYY     -65.8798   YYYY    -367.1134   XXXZ     -93.1918
      XXYZ     -15.9587   XYYZ     -30.5157   YYYZ     -44.4026
      XXZZ    -323.4049   XYZZ     -37.2362   YYZZ    -337.1233
      XZZZ    -111.7013   YZZZ     -19.9570   ZZZZ   -1707.3135
 -----------------------------------------------------------------
Archival summary:
1\1\centos77-c5\SP\ProcedureUnspecified\BasisUnspecified\42(3)\shihchen\MonJul1315:46:472020MonJul1315:46:472020\0\\#,ProcedureUnspecified,BasisUnspecified,\\0,3\N\O,1,1.21396\O,1,1.22425,2,129.897\O,1,1.40061,2,120.28,3,-179.741,0\N,4,1.64061,1,111.49,2,2.60446,0\O,5,1.16627,4,121.016,1,95.6949,0\\\@

 Total job time:  15.42s(wall), 82.40s(cpu) 
 Mon Jul 13 15:46:47 2020

        *************************************************************
        *                                                           *
        *  Thank you very much for using Q-Chem.  Have a nice day.  *
        *                                                           *
        *************************************************************


