                  Welcome to Q-Chem
     A Quantum Leap Into The Future Of Chemistry


 Q-Chem 5.3 (devel), Q-Chem, Inc., Pleasanton, CA (2020)

 Yihan Shao,  Zhengting Gan,  E. Epifanovsky,  A. T. B. Gilbert,  M. Wormit,  
 J. Kussmann,  A. W. Lange,  A. Behn,  Jia Deng,  Xintian Feng,  D. Ghosh,  
 M. Goldey,  P. R. Horn,  L. D. Jacobson,  I. Kaliman,  T. Kus,  A. Landau,  
 Jie Liu,  E. I. Proynov,  R. M. Richard,  R. P. Steele,  E. J. Sundstrom,  
 H. L. Woodcock III,  P. M. Zimmerman,  D. Zuev,  B. Alam,  B. Albrecht,  
 E. Alguire,  S. A. Baeppler,  D. Barton,  Z. Benda,  Y. A. Bernard,  
 E. J. Berquist,  K. B. Bravaya,  H. Burton,  K. Carter-Fenk,  D. Casanova,  
 Chun-Min Chang,  Yunqing Chen,  A. Chien,  K. D. Closser,  M. P. Coons,  
 S. Coriani,  S. Dasgupta,  A. L. Dempwolff,  M. Diedenhofen,  Hainam Do,  
 R. G. Edgar,  Po-Tung Fang,  S. Faraji,  S. Fatehi,  Qingguo Feng,  
 J. Fosso-Tande,  J. Gayvert,  Qinghui Ge,  A. Ghysels,  G. Gidofalvi,  
 J. Gomes,  J. Gonthier,  A. Gunina,  D. Hait,  M. W. D. Hanson-Heine,  
 P. H. P. Harbach,  A. W. Hauser,  M. F. Herbst,  J. E. Herr,  
 E. G. Hohenstein,  Z. C. Holden,  Kerwin Hui,  B. C. Huynh,  T.-C. Jagau,  
 Hyunjun Ji,  B. Kaduk,  K. Khistyaev,  Jaehoon Kim,  P. Klunzinger,  K. Koh,  
 D. Kosenkov,  L. Koulias,  T. Kowalczyk,  C. M. Krauter,  A. Kunitsa,  
 Ka Un Lao,  A. Laurent,  K. V. Lawler,  Joonho Lee,  D. Lefrancois,  
 S. Lehtola,  D. S. Levine,  Yi-Pei Li,  You-Sheng Lin,  Fenglai Liu,  
 Kuan-Yu Liu,  E. Livshits,  M. Loipersberger,  A. Luenser,  P. Manohar,  
 E. Mansoor,  S. F. Manzer,  Shan-Ping Mao,  Yuezhi Mao,  N. Mardirossian,  
 A. V. Marenich,  T. Markovich,  L. A. Martinez-Martinez,  S. A. Maurer,  
 N. J. Mayhall,  S. C. McKenzie,  J.-M. Mewes,  P. Morgante,  A. F. Morrison,  
 J. W. Mullinax,  K. Nanda,  T. S. Nguyen-Beck,  R. Olivares-Amaya,  
 K. J. Oosterbaan,  J. A. Parkhill,  S. K. Paul,  F. Pavosevic,  Zheng Pei,  
 T. M. Perrine,  F. Plasser,  P. Pokhilko,  S. Prager,  A. Prociuk,  
 E. Ramos,  B. Rana,  D. R. Rehn,  F. Rob,  M. Scheurer,  M. Schneider,  
 N. Sergueev,  S. M. Sharada,  S. Sharma,  D. W. Small,  T. Stauch,  
 C. J. Stein,  T. Stein,  Yu-Chuan Su,  S. P. Veccham,  Zhen Tao,  
 A. J. W. Thom,  A. Tkatchenko,  T. Tsuchimochi,  N. M. Tubman,  L. Vogt,  
 M. L. Vidal,  O. Vydrov,  M. A. Watson,  J. Wenzel,  M. de Wergifosse,  
 T. A. Wesolowski,  A. White,  J. Witte,  A. Yamada,  Jun Yang,  K. Yao,  
 S. Yeganeh,  S. R. Yost,  Zhi-Qiang You,  A. Zech,  Igor Ying Zhang,  
 Xing Zhang,  Yan Zhao,  Ying Zhu,  B. R. Brooks,  G. K. L. Chan,  
 C. J. Cramer,  M. S. Gordon,  W. J. Hehre,  A. Klamt,  M. W. Schmidt,  
 C. D. Sherrill,  D. G. Truhlar,  A. Aspuru-Guzik,  R. Baer,  A. T. Bell,  
 N. A. Besley,  Jeng-Da Chai,  A. E. DePrince, III,  R. A. DiStasio Jr.,  
 A. Dreuw,  B. D. Dunietz,  T. R. Furlani,  Chao-Ping Hsu,  Yousung Jung,  
 Jing Kong,  D. S. Lambrecht,  WanZhen Liang,  C. Ochsenfeld,  
 V. A. Rassolov,  L. V. Slipchenko,  J. E. Subotnik,  T. Van Voorhis,  
 J. M. Herbert,  A. I. Krylov,  P. M. W. Gill,  M. Head-Gordon

 Contributors to earlier versions of Q-Chem not listed above: 
 R. D. Adamson,  B. Austin,  J. Baker,  G. J. O. Beran,  K. Brandhorst,  
 S. T. Brown,  E. F. C. Byrd,  A. K. Chakraborty,  C.-L. Cheng,  
 Siu Hung Chien,  D. M. Chipman,  D. L. Crittenden,  H. Dachsel,  
 R. J. Doerksen,  A. D. Dutoi,  L. Fusti-Molnar,  W. A. Goddard III,  
 A. Golubeva-Zadorozhnaya,  S. R. Gwaltney,  G. Hawkins,  A. Heyden,  
 S. Hirata,  G. Kedziora,  F. J. Keil,  C. Kelley,  Jihan Kim,  R. A. King,  
 R. Z. Khaliullin,  P. P. Korambath,  W. Kurlancheek,  A. M. Lee,  M. S. Lee,  
 S. V. Levchenko,  Ching Yeh Lin,  D. Liotard,  R. C. Lochan,  I. Lotan,  
 P. E. Maslen,  N. Nair,  D. P. O'Neill,  D. Neuhauser,  E. Neuscamman,  
 C. M. Oana,  R. Olson,  B. Peters,  R. Peverati,  P. A. Pieniazek,  
 Y. M. Rhee,  J. Ritchie,  M. A. Rohrdanz,  E. Rosta,  N. J. Russ,  
 H. F. Schaefer III,  N. E. Schultz,  N. Shenvi,  A. C. Simmonett,  A. Sodt,  
 D. Stuck,  K. S. Thanthiriwatte,  V. Vanovschi,  Tao Wang,  A. Warshel,  
 C. F. Williams,  Q. Wu,  X. Xu,  W. Zhang

 Please cite Q-Chem as follows:
 Y. Shao et al., Mol. Phys. 113, 184-215 (2015)
 DOI: 10.1080/00268976.2014.952696

 Q-Chem 5.3.0 for Intel X86 EM64T Linux

 Parts of Q-Chem use Armadillo 9.800.1 (Horizon Scraper).
 http://arma.sourceforge.net/

 Q-Chem begins on Mon Jul 13 15:51:12 2020  

Host: centos77-c5
0

     Scratch files written to /tmp/29025.centos77-h1/qchem67704//
Processing $rem in /opt/qchem-5.3.0-intel2020u1//config/preferences:
Processing $rem in /home/shihchengli/.qchemrc:

Checking the input file for inconsistencies... 	...done.

--------------------------------------------------------------
User input:
--------------------------------------------------------------
$rem
   JOBTYPE  sp
   EXCHANGE   omegaB97X-D
   BASIS   6-311+G(2df,2pd)
   UNRESTRICTED   True
   max_scf_cycles   250
   geom_opt_max_cycles   1500
   basis2 6-31G*
   scf_algorithm rca_diis
   SYM_IGNORE  TRUE
   print_input   true
   geom_opt_dmax   80
   pop_mulliken false
   XC_GRID 000075000302
$end

$molecule
0 3
N       0.6707279448     1.2258242228     2.4595482160
O       0.3837189556     2.1690161919     1.8669988342
O       1.6143111636     0.9791625430     3.2020291827
N       0.0365657352     -1.1512875111     3.1384822929
O       -0.4785441329     -1.3263936054     4.1758152726
O       -0.2817885361     0.1986672686     2.2574260916
$end
--------------------------------------------------------------
 ----------------------------------------------------------------
             Standard Nuclear Orientation (Angstroms)
    I     Atom           X                Y                Z
 ----------------------------------------------------------------
    1      N       0.6707279448     1.2258242228     2.4595482160
    2      O       0.3837189556     2.1690161919     1.8669988342
    3      O       1.6143111636     0.9791625430     3.2020291827
    4      N       0.0365657352    -1.1512875111     3.1384822929
    5      O      -0.4785441329    -1.3263936054     4.1758152726
    6      O      -0.2817885361     0.1986672686     2.2574260916
 ----------------------------------------------------------------
 Nuclear Repulsion Energy =         231.54736921 hartrees
 There are       24 alpha and       22 beta electrons
 Requested basis set is 6-311+G(2df,2pd)
 There are 48 shells and 204 basis functions

 Total QAlloc Memory Limit   2000 MB
 Mega-Array Size       188 MB
 MEM_STATIC part       192 MB

                       Distance Matrix (Angstroms)
             N (  1)   O (  2)   O (  3)   N (  4)   O (  5)
   O (  2)  1.150261
   O (  3)  1.225753  2.170810
   N (  4)  2.552210  3.572338  2.651818
   O (  5)  3.283324  4.276917  3.262498  1.171350
   O (  6)  1.415342  2.116036  2.257574  1.643164  2.458605
 
 A cutoff of  1.0D-09 yielded   1024 shell pairs
 There are     19100 function pairs (     25041 Cartesian)
 Smallest overlap matrix eigenvalue = 6.77E-04

 Scale SEOQF with 1.000000e-01/1.000000e-01/1.000000e-01

 Standard Electronic Orientation quadrupole field applied
 Nucleus-field energy     =    -0.0000000363 hartrees
 Requested basis set is 6-31G(d)
 There are 24 shells and 84 basis functions
 A cutoff of  1.0D-09 yielded    268 shell pairs
 There are      3534 function pairs (      4062 Cartesian)
 Smallest overlap matrix eigenvalue = 4.73E-03
 Guess from superposition of atomic densities
 Warning:  Energy on first SCF cycle will be non-variational
 SAD guess density has 46.000000 electrons
 Long-range K will be added via erf
 Coulomb attenuation parameter = 0.2 bohr**(-1)
 An unrestricted hybrid HF-DFT SCF calculation will be
 performed using Relaxed Constraint Minimization + Pulay DIIS
 Exchange:     0.2220 Hartree-Fock + 1.0000 wB97X-D + LR-HF
 Correlation:  1.0000 wB97X-D
 Using Euler-Maclaurin-Lebedev (75,302) quadrature formula
 Dispersion:   Grimme D
 SCF converges when DIIS error is below 1.0E-04
 using 6 threads for integral computing
 -------------------------------------------------------
 OpenMP Integral computing Module                
 Release: version 1.0, May 2013, Q-Chem Inc. Pittsburgh 
 -------------------------------------------------------
 using 6 threads for integral computing
 -------------------------------------------------------
 OpenMP Integral computing Module                
 Release: version 1.0, May 2013, Q-Chem Inc. Pittsburgh 
 -------------------------------------------------------
 ---------------------------------------
  Cycle       Energy         DIIS Error
 ---------------------------------------
    1    -411.0347491069      8.86E-02
    2    -409.6514355943      1.96E-02
    3    -409.7550734480      4.67E-03
    4    -409.9046495666      5.06E-03
    5    -409.9118174758      7.04E-04 Done RCA. Switching to DIIS
    6    -409.9212684990      6.64E-04
    7    -409.9217077586      2.13E-04
    8    -409.9218079481      6.75E-05 Convergence criterion met
 ---------------------------------------
 <S^2> = 2.0158
 SCF time:  CPU 14.26 s  wall 2.39 s
 SCF   energy in the small basis set = -409.92180795
 Total energy in the small basis set = -409.92180795
 ----------------------------------------------------
  Cycle       Energy    
 ----------------------------------------------------
    1     -41.7581990876     -4.18E+01
 Long-range K will be added via erf
 Coulomb attenuation parameter = 0.2 bohr**(-1)
 An unrestricted hybrid HF-DFT SCF calculation will be
 performed using Relaxed Constraint Minimization + Pulay DIIS
 Exchange:     0.2220 Hartree-Fock + 1.0000 wB97X-D + LR-HF
 Correlation:  1.0000 wB97X-D
 Using Euler-Maclaurin-Lebedev (75,302) quadrature formula
 Dispersion:   Grimme D
 SCF converges when DIIS error is below 1.0E-05
 Basis2 calculation detected. Using small basis as guess for larger.
 SCFMinFind is unable to tell whether the solution found is close.
 Resetting ReadMinima to 0 and attempting to follow guess.
 SCFMinFind following SCF Guess.
 using 6 threads for integral computing
 -------------------------------------------------------
 OpenMP Integral computing Module                
 Release: version 1.0, May 2013, Q-Chem Inc. Pittsburgh 
 -------------------------------------------------------
 using 6 threads for integral computing
 -------------------------------------------------------
 OpenMP Integral computing Module                
 Release: version 1.0, May 2013, Q-Chem Inc. Pittsburgh 
 -------------------------------------------------------
 ---------------------------------------
  Cycle       Energy         DIIS Error
 ---------------------------------------
    1    -410.0115780495      8.02E-03
    2    -410.0233727759      4.07E-03
    3    -410.0441675882      1.03E-03
    4    -410.0732199719      1.06E-03
    5    -410.0748872285      1.59E-04 Done RCA. Switching to DIIS
    6    -410.0772536953      1.54E-04
    7    -410.0774275448      3.70E-05
    8    -410.0774746329      2.54E-05
    9    -410.0774926167      9.90E-06 Convergence criterion met
 ---------------------------------------
 <S^2> = 2.0182
 SCF time:  CPU 58.61 s  wall 9.80 s
 SCF   energy in the final basis set = -410.07749262
 Total energy in the final basis set = -410.07749262
 
 --------------------------------------------------------------
 
                    Orbital Energies (a.u.)
 --------------------------------------------------------------
 
 Alpha MOs
 -- Occupied --
-19.4127 -19.4003 -19.3608 -19.3345 -14.7727 -14.6215  -1.4524  -1.3676
 -1.2522  -1.2080  -0.8772  -0.7767  -0.7213  -0.7206  -0.6846  -0.6556
 -0.6320  -0.6319  -0.5047  -0.4984  -0.4608  -0.4558  -0.4389  -0.3410
 -- Virtual --
 -0.0228   0.0084   0.0771   0.1168   0.1251   0.1359   0.1382   0.1699
  0.1790   0.1849   0.2270   0.2431   0.2486   0.2660   0.2737   0.2919
  0.3060   0.3282   0.3349   0.3449   0.3511   0.3609   0.3683   0.3904
  0.3998   0.4313   0.4427   0.4582   0.4917   0.5322   0.7447   0.7690
  0.8028   0.8296   0.8617   0.8794   0.9332   0.9521   0.9783   1.0086
  1.0235   1.0491   1.0611   1.0744   1.0765   1.0856   1.1206   1.1239
  1.1350   1.1585   1.1684   1.1753   1.2184   1.2450   1.2557   1.3247
  1.4486   1.4637   1.5175   1.5415   1.5692   1.5955   1.5998   1.6222
  1.6494   1.6783   1.7021   1.7876   1.8197   1.8899   1.9230   1.9442
  1.9866   2.1230   2.1964   2.2428   2.3311   2.3679   2.4369   2.4999
  2.5256   2.5867   2.6919   2.8087   3.4998   3.5373   3.5769   3.6251
  3.6325   3.6587   3.6945   3.7135   3.7191   3.7731   3.7937   3.8942
  3.9504   3.9963   4.0254   4.0742   4.0861   4.3991   4.4363   4.4879
  4.5056   4.6008   4.6473   4.6723   4.6890   4.7188   4.7411   4.7747
  4.8147   4.9113   4.9900   5.0026   5.0212   5.0221   5.0453   5.0489
  5.0656   5.0848   5.0912   5.1068   5.1229   5.1463   5.1621   5.1700
  5.2146   5.2666   5.3391   5.3667   5.3887   5.4067   5.4684   5.5145
  5.5325   5.5740   5.6288   5.6731   5.8048   5.8739   6.0133   6.1142
  6.3268   6.4971   6.6400   6.6570   6.7044   6.7276   6.7385   6.7640
  6.7987   6.8307   6.8767   6.9352   6.9540   6.9970   7.0942   7.1052
  7.1596   7.1730   7.1989   7.2703   7.3271   7.3298   7.4530   7.5589
  7.6720   7.6917   7.7729   7.8730   7.9139   8.2934  35.9058  36.1261
 49.9926  50.1601  50.2027  50.2989
 
 Beta MOs
 -- Occupied --
-19.3994 -19.3824 -19.3588 -19.3348 -14.7725 -14.6032  -1.4474  -1.3292
 -1.2488  -1.1762  -0.8331  -0.7443  -0.7183  -0.7048  -0.6730  -0.6018
 -0.5825  -0.5575  -0.4788  -0.4749  -0.4605  -0.4415
 -- Virtual --
 -0.1518  -0.0202  -0.0086   0.0595   0.0860   0.1217   0.1357   0.1423
  0.1432   0.1726   0.1822   0.1891   0.2282   0.2472   0.2517   0.2676
  0.2771   0.2937   0.3131   0.3299   0.3359   0.3467   0.3528   0.3626
  0.3704   0.4012   0.4068   0.4353   0.4455   0.4640   0.5097   0.5376
  0.7540   0.7796   0.8165   0.8470   0.8768   0.8847   0.9363   0.9603
  0.9880   1.0199   1.0296   1.0637   1.0735   1.0847   1.0872   1.1015
  1.1277   1.1364   1.1457   1.1673   1.1817   1.1867   1.2297   1.2540
  1.2715   1.3409   1.4591   1.4797   1.5226   1.5456   1.5739   1.6053
  1.6187   1.6439   1.6646   1.7045   1.7105   1.7909   1.8274   1.9020
  1.9293   1.9588   2.0025   2.1378   2.2091   2.2543   2.3446   2.3781
  2.4515   2.5141   2.5304   2.5913   2.7006   2.8127   3.5265   3.5731
  3.5915   3.6416   3.6517   3.6603   3.7065   3.7234   3.7344   3.8033
  3.8609   3.9138   3.9813   4.0143   4.0262   4.0872   4.1022   4.4023
  4.4382   4.4906   4.5140   4.6290   4.6680   4.6953   4.7249   4.7363
  4.7664   4.8095   4.8618   4.9613   5.0067   5.0184   5.0455   5.0495
  5.0601   5.0633   5.0770   5.0908   5.1107   5.1281   5.1367   5.1654
  5.1905   5.2028   5.2255   5.2922   5.3585   5.3789   5.3943   5.4253
  5.4831   5.5382   5.5531   5.5855   5.6517   5.6886   5.8101   5.8804
  6.0313   6.1480   6.3398   6.4987   6.6833   6.6856   6.7232   6.7679
  6.7924   6.8024   6.8034   6.8376   6.8789   6.9459   6.9778   7.0123
  7.1158   7.1211   7.1670   7.2035   7.2271   7.2783   7.3334   7.3556
  7.4792   7.5654   7.7035   7.7194   7.7830   7.8914   7.9193   8.2959
 35.9278  36.1265  50.0067  50.1767  50.2026  50.3008
 --------------------------------------------------------------
 
 -----------------------------------------------------------------
                    Cartesian Multipole Moments
 -----------------------------------------------------------------
    Charge (ESU x 10^10)
                -0.0000
    Dipole Moment (Debye)
         X      -0.5251      Y      -0.6135      Z      -0.1777
       Tot       0.8269
    Quadrupole Moments (Debye-Ang)
        XX     -33.6119     XY      -1.2298     YY     -32.7089
        XZ      -2.8537     YZ      -0.9192     ZZ     -33.4015
    Octopole Moments (Debye-Ang^2)
       XXX     -35.1991    XXY     -13.3218    XYY     -11.6619
       YYY     -39.6332    XXZ     -97.7444    XYZ      -5.1812
       YYZ     -90.5086    XZZ     -21.2778    YZZ     -11.2567
       ZZZ    -281.6541
    Hexadecapole Moments (Debye-Ang^3)
      XXXX    -143.3840   XXXY     -63.9789   XXYY     -84.0060
      XYYY     -65.0246   YYYY    -356.7691   XXXZ     -95.1515
      XXYZ     -16.5797   XYYZ     -30.3097   YYYZ     -37.2324
      XXZZ    -327.7046   XYZZ     -39.6532   YYZZ    -333.2118
      XZZZ    -117.7984   YZZZ     -17.1409   ZZZZ   -1731.8297
 -----------------------------------------------------------------
Archival summary:
1\1\centos77-c5\SP\ProcedureUnspecified\BasisUnspecified\42(3)\shihchen\MonJul1315:51:272020MonJul1315:51:272020\0\\#,ProcedureUnspecified,BasisUnspecified,\\0,3\N\O,1,1.15026\O,1,1.22575,2,132\O,1,1.41534,2,110.707,3,179.718,0\N,4,1.64316,1,112.909,2,-177.185,0\O,5,1.17135,4,120.828,1,95.6949,0\\\@

 Total job time:  14.51s(wall), 76.89s(cpu) 
 Mon Jul 13 15:51:27 2020

        *************************************************************
        *                                                           *
        *  Thank you very much for using Q-Chem.  Have a nice day.  *
        *                                                           *
        *************************************************************


