                  Welcome to Q-Chem
     A Quantum Leap Into The Future Of Chemistry


 Q-Chem 5.3 (devel), Q-Chem, Inc., Pleasanton, CA (2020)

 Yihan Shao,  Zhengting Gan,  E. Epifanovsky,  A. T. B. Gilbert,  M. Wormit,  
 J. Kussmann,  A. W. Lange,  A. Behn,  Jia Deng,  Xintian Feng,  D. Ghosh,  
 M. Goldey,  P. R. Horn,  L. D. Jacobson,  I. Kaliman,  T. Kus,  A. Landau,  
 Jie Liu,  E. I. Proynov,  R. M. Richard,  R. P. Steele,  E. J. Sundstrom,  
 H. L. Woodcock III,  P. M. Zimmerman,  D. Zuev,  B. Alam,  B. Albrecht,  
 E. Alguire,  S. A. Baeppler,  D. Barton,  Z. Benda,  Y. A. Bernard,  
 E. J. Berquist,  K. B. Bravaya,  H. Burton,  K. Carter-Fenk,  D. Casanova,  
 Chun-Min Chang,  Yunqing Chen,  A. Chien,  K. D. Closser,  M. P. Coons,  
 S. Coriani,  S. Dasgupta,  A. L. Dempwolff,  M. Diedenhofen,  Hainam Do,  
 R. G. Edgar,  Po-Tung Fang,  S. Faraji,  S. Fatehi,  Qingguo Feng,  
 J. Fosso-Tande,  J. Gayvert,  Qinghui Ge,  A. Ghysels,  G. Gidofalvi,  
 J. Gomes,  J. Gonthier,  A. Gunina,  D. Hait,  M. W. D. Hanson-Heine,  
 P. H. P. Harbach,  A. W. Hauser,  M. F. Herbst,  J. E. Herr,  
 E. G. Hohenstein,  Z. C. Holden,  Kerwin Hui,  B. C. Huynh,  T.-C. Jagau,  
 Hyunjun Ji,  B. Kaduk,  K. Khistyaev,  Jaehoon Kim,  P. Klunzinger,  K. Koh,  
 D. Kosenkov,  L. Koulias,  T. Kowalczyk,  C. M. Krauter,  A. Kunitsa,  
 Ka Un Lao,  A. Laurent,  K. V. Lawler,  Joonho Lee,  D. Lefrancois,  
 S. Lehtola,  D. S. Levine,  Yi-Pei Li,  You-Sheng Lin,  Fenglai Liu,  
 Kuan-Yu Liu,  E. Livshits,  M. Loipersberger,  A. Luenser,  P. Manohar,  
 E. Mansoor,  S. F. Manzer,  Shan-Ping Mao,  Yuezhi Mao,  N. Mardirossian,  
 A. V. Marenich,  T. Markovich,  L. A. Martinez-Martinez,  S. A. Maurer,  
 N. J. Mayhall,  S. C. McKenzie,  J.-M. Mewes,  P. Morgante,  A. F. Morrison,  
 J. W. Mullinax,  K. Nanda,  T. S. Nguyen-Beck,  R. Olivares-Amaya,  
 K. J. Oosterbaan,  J. A. Parkhill,  S. K. Paul,  F. Pavosevic,  Zheng Pei,  
 T. M. Perrine,  F. Plasser,  P. Pokhilko,  S. Prager,  A. Prociuk,  
 E. Ramos,  B. Rana,  D. R. Rehn,  F. Rob,  M. Scheurer,  M. Schneider,  
 N. Sergueev,  S. M. Sharada,  S. Sharma,  D. W. Small,  T. Stauch,  
 C. J. Stein,  T. Stein,  Yu-Chuan Su,  S. P. Veccham,  Zhen Tao,  
 A. J. W. Thom,  A. Tkatchenko,  T. Tsuchimochi,  N. M. Tubman,  L. Vogt,  
 M. L. Vidal,  O. Vydrov,  M. A. Watson,  J. Wenzel,  M. de Wergifosse,  
 T. A. Wesolowski,  A. White,  J. Witte,  A. Yamada,  Jun Yang,  K. Yao,  
 S. Yeganeh,  S. R. Yost,  Zhi-Qiang You,  A. Zech,  Igor Ying Zhang,  
 Xing Zhang,  Yan Zhao,  Ying Zhu,  B. R. Brooks,  G. K. L. Chan,  
 C. J. Cramer,  M. S. Gordon,  W. J. Hehre,  A. Klamt,  M. W. Schmidt,  
 C. D. Sherrill,  D. G. Truhlar,  A. Aspuru-Guzik,  R. Baer,  A. T. Bell,  
 N. A. Besley,  Jeng-Da Chai,  A. E. DePrince, III,  R. A. DiStasio Jr.,  
 A. Dreuw,  B. D. Dunietz,  T. R. Furlani,  Chao-Ping Hsu,  Yousung Jung,  
 Jing Kong,  D. S. Lambrecht,  WanZhen Liang,  C. Ochsenfeld,  
 V. A. Rassolov,  L. V. Slipchenko,  J. E. Subotnik,  T. Van Voorhis,  
 J. M. Herbert,  A. I. Krylov,  P. M. W. Gill,  M. Head-Gordon

 Contributors to earlier versions of Q-Chem not listed above: 
 R. D. Adamson,  B. Austin,  J. Baker,  G. J. O. Beran,  K. Brandhorst,  
 S. T. Brown,  E. F. C. Byrd,  A. K. Chakraborty,  C.-L. Cheng,  
 Siu Hung Chien,  D. M. Chipman,  D. L. Crittenden,  H. Dachsel,  
 R. J. Doerksen,  A. D. Dutoi,  L. Fusti-Molnar,  W. A. Goddard III,  
 A. Golubeva-Zadorozhnaya,  S. R. Gwaltney,  G. Hawkins,  A. Heyden,  
 S. Hirata,  G. Kedziora,  F. J. Keil,  C. Kelley,  Jihan Kim,  R. A. King,  
 R. Z. Khaliullin,  P. P. Korambath,  W. Kurlancheek,  A. M. Lee,  M. S. Lee,  
 S. V. Levchenko,  Ching Yeh Lin,  D. Liotard,  R. C. Lochan,  I. Lotan,  
 P. E. Maslen,  N. Nair,  D. P. O'Neill,  D. Neuhauser,  E. Neuscamman,  
 C. M. Oana,  R. Olson,  B. Peters,  R. Peverati,  P. A. Pieniazek,  
 Y. M. Rhee,  J. Ritchie,  M. A. Rohrdanz,  E. Rosta,  N. J. Russ,  
 H. F. Schaefer III,  N. E. Schultz,  N. Shenvi,  A. C. Simmonett,  A. Sodt,  
 D. Stuck,  K. S. Thanthiriwatte,  V. Vanovschi,  Tao Wang,  A. Warshel,  
 C. F. Williams,  Q. Wu,  X. Xu,  W. Zhang

 Please cite Q-Chem as follows:
 Y. Shao et al., Mol. Phys. 113, 184-215 (2015)
 DOI: 10.1080/00268976.2014.952696

 Q-Chem 5.3.0 for Intel X86 EM64T Linux

 Parts of Q-Chem use Armadillo 9.800.1 (Horizon Scraper).
 http://arma.sourceforge.net/

 Q-Chem begins on Mon Jul 13 15:29:39 2020  

Host: centos77-c5
0

     Scratch files written to /tmp/29025.centos77-h1/qchem77101//
Processing $rem in /opt/qchem-5.3.0-intel2020u1//config/preferences:
Processing $rem in /home/shihchengli/.qchemrc:

Checking the input file for inconsistencies... 	...done.

--------------------------------------------------------------
User input:
--------------------------------------------------------------
$rem
   JOBTYPE  sp
   EXCHANGE   omegaB97X-D
   BASIS   6-311+G(2df,2pd)
   UNRESTRICTED   True
   max_scf_cycles   250
   geom_opt_max_cycles   1500
   basis2 6-31G*
   scf_algorithm rca_diis
   SYM_IGNORE  TRUE
   print_input   true
   geom_opt_dmax   80
   pop_mulliken false
   XC_GRID 000075000302
$end

$molecule
0 3
N       0.6632253511     1.1017664845     2.5440105136
O       0.2095329308     2.0682530244     1.9880470122
O       1.6644972732     0.9351213245     3.1628732547
N       0.1632271098     -1.2924024741     3.1087323611
O       -0.5294395141     -0.9079738420     3.9624354805
O       -0.2260520208     0.1902245926     2.3342012679
$end
--------------------------------------------------------------
 ----------------------------------------------------------------
             Standard Nuclear Orientation (Angstroms)
    I     Atom           X                Y                Z
 ----------------------------------------------------------------
    1      N       0.6632253511     1.1017664845     2.5440105136
    2      O       0.2095329308     2.0682530244     1.9880470122
    3      O       1.6644972732     0.9351213245     3.1628732547
    4      N       0.1632271098    -1.2924024741     3.1087323611
    5      O      -0.5294395141    -0.9079738420     3.9624354805
    6      O      -0.2260520208     0.1902245926     2.3342012679
 ----------------------------------------------------------------
 Nuclear Repulsion Energy =         241.69297406 hartrees
 There are       24 alpha and       22 beta electrons
 Requested basis set is 6-311+G(2df,2pd)
 There are 48 shells and 204 basis functions

 Total QAlloc Memory Limit   2000 MB
 Mega-Array Size       188 MB
 MEM_STATIC part       192 MB

                       Distance Matrix (Angstroms)
             N (  1)   O (  2)   O (  3)   N (  4)   O (  5)
   O (  2)  1.203756
   O (  3)  1.188826  2.186578
   N (  4)  2.510170  3.542892  2.686746
   O (  5)  2.733758  3.647220  2.974838  1.164638
   O (  6)  1.290637  1.958711  2.194481  1.717446  1.987267
 
 A cutoff of  1.0D-09 yielded   1059 shell pairs
 There are     19773 function pairs (     26023 Cartesian)
 Smallest overlap matrix eigenvalue = 6.74E-04

 Scale SEOQF with 1.000000e-01/1.000000e-01/1.000000e-01

 Standard Electronic Orientation quadrupole field applied
 Nucleus-field energy     =    -0.0000000363 hartrees
 Requested basis set is 6-31G(d)
 There are 24 shells and 84 basis functions
 A cutoff of  1.0D-09 yielded    272 shell pairs
 There are      3573 function pairs (      4114 Cartesian)
 Smallest overlap matrix eigenvalue = 4.54E-03
 Guess from superposition of atomic densities
 Warning:  Energy on first SCF cycle will be non-variational
 SAD guess density has 46.000000 electrons
 Long-range K will be added via erf
 Coulomb attenuation parameter = 0.2 bohr**(-1)
 An unrestricted hybrid HF-DFT SCF calculation will be
 performed using Relaxed Constraint Minimization + Pulay DIIS
 Exchange:     0.2220 Hartree-Fock + 1.0000 wB97X-D + LR-HF
 Correlation:  1.0000 wB97X-D
 Using Euler-Maclaurin-Lebedev (75,302) quadrature formula
 Dispersion:   Grimme D
 SCF converges when DIIS error is below 1.0E-04
 using 6 threads for integral computing
 -------------------------------------------------------
 OpenMP Integral computing Module                
 Release: version 1.0, May 2013, Q-Chem Inc. Pittsburgh 
 -------------------------------------------------------
 using 6 threads for integral computing
 -------------------------------------------------------
 OpenMP Integral computing Module                
 Release: version 1.0, May 2013, Q-Chem Inc. Pittsburgh 
 -------------------------------------------------------
 ---------------------------------------
  Cycle       Energy         DIIS Error
 ---------------------------------------
    1    -411.2422234934      9.25E-02
    2    -409.6392370898      1.93E-02
    3    -409.7404260008      4.34E-03
    4    -409.8851332276      4.10E-03
    5    -409.8900106386      5.03E-04 Done RCA. Switching to DIIS
    6    -409.8963191287      2.97E-04
    7    -409.8965480464      9.98E-05 Convergence criterion met
 ---------------------------------------
 <S^2> = 2.0191
 SCF time:  CPU 13.82 s  wall 2.32 s
 SCF   energy in the small basis set = -409.89654805
 Total energy in the small basis set = -409.89654805
 ----------------------------------------------------
  Cycle       Energy    
 ----------------------------------------------------
    1     -41.8329209482     -4.18E+01
 Long-range K will be added via erf
 Coulomb attenuation parameter = 0.2 bohr**(-1)
 An unrestricted hybrid HF-DFT SCF calculation will be
 performed using Relaxed Constraint Minimization + Pulay DIIS
 Exchange:     0.2220 Hartree-Fock + 1.0000 wB97X-D + LR-HF
 Correlation:  1.0000 wB97X-D
 Using Euler-Maclaurin-Lebedev (75,302) quadrature formula
 Dispersion:   Grimme D
 SCF converges when DIIS error is below 1.0E-05
 Basis2 calculation detected. Using small basis as guess for larger.
 SCFMinFind is unable to tell whether the solution found is close.
 Resetting ReadMinima to 0 and attempting to follow guess.
 SCFMinFind following SCF Guess.
 using 6 threads for integral computing
 -------------------------------------------------------
 OpenMP Integral computing Module                
 Release: version 1.0, May 2013, Q-Chem Inc. Pittsburgh 
 -------------------------------------------------------
 using 6 threads for integral computing
 -------------------------------------------------------
 OpenMP Integral computing Module                
 Release: version 1.0, May 2013, Q-Chem Inc. Pittsburgh 
 -------------------------------------------------------
 ---------------------------------------
  Cycle       Energy         DIIS Error
 ---------------------------------------
    1    -409.9849747325      8.04E-03
    2    -409.9918787492      4.23E-03
    3    -410.0133846454      1.31E-03
    4    -410.0446544387      1.13E-03
    5    -410.0474582906      1.92E-04 Done RCA. Switching to DIIS
    6    -410.0514640604      2.49E-04
    7    -410.0518127537      6.73E-05
    8    -410.0519405413      3.02E-05
    9    -410.0520049606      2.49E-05
   10    -410.0520324710      1.52E-05
   11    -410.0520396700      5.83E-06 Convergence criterion met
 ---------------------------------------
 <S^2> = 2.0237
 SCF time:  CPU 75.01 s  wall 12.53 s
 SCF   energy in the final basis set = -410.05203967
 Total energy in the final basis set = -410.05203967
 
 --------------------------------------------------------------
 
                    Orbital Energies (a.u.)
 --------------------------------------------------------------
 
 Alpha MOs
 -- Occupied --
-19.4186 -19.4008 -19.3547 -19.3491 -14.7827 -14.5979  -1.4798  -1.3840
 -1.2731  -1.2276  -0.8593  -0.7946  -0.7444  -0.7271  -0.7015  -0.6560
 -0.6288  -0.6109  -0.5282  -0.5010  -0.4699  -0.4684  -0.4397  -0.3313
 -- Virtual --
 -0.0306  -0.0050   0.0887   0.1236   0.1335   0.1357   0.1671   0.1773
  0.1848   0.2061   0.2285   0.2398   0.2507   0.2607   0.2806   0.2930
  0.3037   0.3224   0.3355   0.3496   0.3593   0.3622   0.3737   0.3830
  0.4116   0.4362   0.4587   0.4611   0.4957   0.5210   0.7349   0.7647
  0.7994   0.8076   0.8388   0.8615   0.9446   0.9644   0.9799   1.0075
  1.0237   1.0300   1.0512   1.0671   1.0841   1.0934   1.1121   1.1253
  1.1502   1.1670   1.1783   1.1832   1.2155   1.2401   1.2538   1.3042
  1.4130   1.4833   1.5252   1.5317   1.5624   1.5728   1.6071   1.6281
  1.6361   1.7023   1.7735   1.8098   1.8305   1.9175   1.9548   2.0332
  2.0561   2.1512   2.2123   2.2493   2.3282   2.3874   2.4413   2.5020
  2.5387   2.5647   2.7128   2.8113   3.5449   3.5513   3.5873   3.6260
  3.6424   3.6641   3.6919   3.7099   3.7654   3.7807   3.8088   3.9341
  3.9754   3.9993   4.0238   4.1122   4.2379   4.3849   4.4230   4.4907
  4.5287   4.5795   4.6222   4.6264   4.6718   4.6869   4.7077   4.7386
  4.8485   4.9319   4.9675   4.9963   5.0221   5.0255   5.0345   5.0449
  5.0534   5.0862   5.1090   5.1128   5.1392   5.1559   5.1698   5.1847
  5.2115   5.3001   5.3152   5.3666   5.4092   5.4271   5.4693   5.5188
  5.5506   5.6147   5.6787   5.7208   5.8628   5.9731   6.0665   6.1478
  6.5132   6.5602   6.6604   6.6748   6.7079   6.7200   6.7634   6.7766
  6.7991   6.8331   6.8653   6.8833   7.0065   7.0444   7.1097   7.1657
  7.1743   7.1977   7.2503   7.3112   7.3240   7.4026   7.4965   7.6288
  7.6838   7.7466   7.8950   7.9169   8.0136   8.2610  36.0033  36.2026
 50.0558  50.1877  50.2414  50.2635
 
 Beta MOs
 -- Occupied --
-19.4038 -19.3815 -19.3496 -19.3487 -14.7832 -14.5851  -1.4690  -1.3475
 -1.2662  -1.1979  -0.8189  -0.7600  -0.7344  -0.7145  -0.6824  -0.6014
 -0.5786  -0.5579  -0.4910  -0.4754  -0.4619  -0.4435
 -- Virtual --
 -0.1505  -0.0227   0.0010   0.0286   0.0914   0.1281   0.1358   0.1400
  0.1690   0.1818   0.1902   0.2134   0.2337   0.2438   0.2540   0.2628
  0.2816   0.2969   0.3103   0.3245   0.3374   0.3516   0.3622   0.3645
  0.3761   0.3882   0.4189   0.4389   0.4610   0.4659   0.5148   0.5293
  0.7427   0.7678   0.8102   0.8236   0.8551   0.8678   0.9506   0.9683
  0.9906   1.0186   1.0322   1.0370   1.0599   1.0782   1.0995   1.1023
  1.1167   1.1368   1.1606   1.1834   1.1888   1.2019   1.2328   1.2518
  1.2650   1.3175   1.4250   1.5003   1.5326   1.5434   1.5741   1.5808
  1.6254   1.6466   1.6561   1.7088   1.7813   1.8257   1.8413   1.9251
  1.9595   2.0474   2.0746   2.1720   2.2165   2.2664   2.3445   2.3954
  2.4568   2.5112   2.5504   2.5684   2.7224   2.8168   3.5581   3.5695
  3.6059   3.6421   3.6509   3.6743   3.6998   3.7228   3.7730   3.8260
  3.8517   3.9460   4.0003   4.0097   4.0374   4.1230   4.2452   4.3906
  4.4269   4.4966   4.5295   4.5900   4.6387   4.6459   4.6889   4.7095
  4.7359   4.7647   4.8885   4.9765   4.9886   5.0179   5.0416   5.0472
  5.0573   5.0714   5.0833   5.1029   5.1207   5.1265   5.1575   5.1880
  5.1893   5.2020   5.2280   5.3240   5.3360   5.3921   5.4263   5.4398
  5.4954   5.5425   5.5718   5.6237   5.7026   5.7296   5.8709   6.0111
  6.0823   6.1570   6.5333   6.5667   6.7024   6.7150   6.7564   6.7693
  6.7781   6.7994   6.8228   6.8534   6.8695   6.8881   7.0351   7.0797
  7.1321   7.1722   7.2082   7.2123   7.2579   7.3356   7.3463   7.4274
  7.5250   7.6455   7.7137   7.7742   7.9009   7.9378   8.0238   8.2674
 36.0189  36.2023  50.0691  50.2054  50.2481  50.2641
 --------------------------------------------------------------
 
 -----------------------------------------------------------------
                    Cartesian Multipole Moments
 -----------------------------------------------------------------
    Charge (ESU x 10^10)
                 0.0000
    Dipole Moment (Debye)
         X      -0.3268      Y      -0.6792      Z       0.0819
       Tot       0.7582
    Quadrupole Moments (Debye-Ang)
        XX     -33.5834     XY      -0.3963     YY     -33.5020
        XZ      -1.9902     YZ      -1.4604     ZZ     -31.1467
    Octopole Moments (Debye-Ang^2)
       XXX     -34.9008    XXY     -12.5660    XYY     -11.9136
       YYY     -40.0476    XXZ     -97.5852    XYZ      -2.3015
       YYZ     -90.8056    XZZ     -17.9467    YZZ     -14.7264
       ZZZ    -268.2736
    Hexadecapole Moments (Debye-Ang^3)
      XXXX    -145.1574   XXXY     -49.8411   XXYY     -77.2511
      XYYY     -49.0309   YYYY    -319.2083   XXXZ     -97.3562
      XXYZ     -19.9099   XYYZ     -32.4785   YYYZ     -59.6756
      XXZZ    -322.7892   XYZZ     -25.4044   YYZZ    -314.4303
      XZZZ    -108.6587   YZZZ     -54.7900   ZZZZ   -1634.7736
 -----------------------------------------------------------------
Archival summary:
1\1\centos77-c5\SP\ProcedureUnspecified\BasisUnspecified\42(3)\shihchen\MonJul1315:29:572020MonJul1315:29:572020\0\\#,ProcedureUnspecified,BasisUnspecified,\\0,3\N\O,1,1.18883\O,1,1.20376,2,132.099\O,1,1.29064,2,124.468,3,-179.45,0\N,4,1.71745,1,112.347,2,2.39591,0\O,5,1.16464,4,84.8834,1,95.6949,0\\\@

 Total job time:  17.28s(wall), 93.00s(cpu) 
 Mon Jul 13 15:29:57 2020

        *************************************************************
        *                                                           *
        *  Thank you very much for using Q-Chem.  Have a nice day.  *
        *                                                           *
        *************************************************************


