                  Welcome to Q-Chem
     A Quantum Leap Into The Future Of Chemistry


 Q-Chem 5.3 (devel), Q-Chem, Inc., Pleasanton, CA (2020)

 Yihan Shao,  Zhengting Gan,  E. Epifanovsky,  A. T. B. Gilbert,  M. Wormit,  
 J. Kussmann,  A. W. Lange,  A. Behn,  Jia Deng,  Xintian Feng,  D. Ghosh,  
 M. Goldey,  P. R. Horn,  L. D. Jacobson,  I. Kaliman,  T. Kus,  A. Landau,  
 Jie Liu,  E. I. Proynov,  R. M. Richard,  R. P. Steele,  E. J. Sundstrom,  
 H. L. Woodcock III,  P. M. Zimmerman,  D. Zuev,  B. Alam,  B. Albrecht,  
 E. Alguire,  S. A. Baeppler,  D. Barton,  Z. Benda,  Y. A. Bernard,  
 E. J. Berquist,  K. B. Bravaya,  H. Burton,  K. Carter-Fenk,  D. Casanova,  
 Chun-Min Chang,  Yunqing Chen,  A. Chien,  K. D. Closser,  M. P. Coons,  
 S. Coriani,  S. Dasgupta,  A. L. Dempwolff,  M. Diedenhofen,  Hainam Do,  
 R. G. Edgar,  Po-Tung Fang,  S. Faraji,  S. Fatehi,  Qingguo Feng,  
 J. Fosso-Tande,  J. Gayvert,  Qinghui Ge,  A. Ghysels,  G. Gidofalvi,  
 J. Gomes,  J. Gonthier,  A. Gunina,  D. Hait,  M. W. D. Hanson-Heine,  
 P. H. P. Harbach,  A. W. Hauser,  M. F. Herbst,  J. E. Herr,  
 E. G. Hohenstein,  Z. C. Holden,  Kerwin Hui,  B. C. Huynh,  T.-C. Jagau,  
 Hyunjun Ji,  B. Kaduk,  K. Khistyaev,  Jaehoon Kim,  P. Klunzinger,  K. Koh,  
 D. Kosenkov,  L. Koulias,  T. Kowalczyk,  C. M. Krauter,  A. Kunitsa,  
 Ka Un Lao,  A. Laurent,  K. V. Lawler,  Joonho Lee,  D. Lefrancois,  
 S. Lehtola,  D. S. Levine,  Yi-Pei Li,  You-Sheng Lin,  Fenglai Liu,  
 Kuan-Yu Liu,  E. Livshits,  M. Loipersberger,  A. Luenser,  P. Manohar,  
 E. Mansoor,  S. F. Manzer,  Shan-Ping Mao,  Yuezhi Mao,  N. Mardirossian,  
 A. V. Marenich,  T. Markovich,  L. A. Martinez-Martinez,  S. A. Maurer,  
 N. J. Mayhall,  S. C. McKenzie,  J.-M. Mewes,  P. Morgante,  A. F. Morrison,  
 J. W. Mullinax,  K. Nanda,  T. S. Nguyen-Beck,  R. Olivares-Amaya,  
 K. J. Oosterbaan,  J. A. Parkhill,  S. K. Paul,  F. Pavosevic,  Zheng Pei,  
 T. M. Perrine,  F. Plasser,  P. Pokhilko,  S. Prager,  A. Prociuk,  
 E. Ramos,  B. Rana,  D. R. Rehn,  F. Rob,  M. Scheurer,  M. Schneider,  
 N. Sergueev,  S. M. Sharada,  S. Sharma,  D. W. Small,  T. Stauch,  
 C. J. Stein,  T. Stein,  Yu-Chuan Su,  S. P. Veccham,  Zhen Tao,  
 A. J. W. Thom,  A. Tkatchenko,  T. Tsuchimochi,  N. M. Tubman,  L. Vogt,  
 M. L. Vidal,  O. Vydrov,  M. A. Watson,  J. Wenzel,  M. de Wergifosse,  
 T. A. Wesolowski,  A. White,  J. Witte,  A. Yamada,  Jun Yang,  K. Yao,  
 S. Yeganeh,  S. R. Yost,  Zhi-Qiang You,  A. Zech,  Igor Ying Zhang,  
 Xing Zhang,  Yan Zhao,  Ying Zhu,  B. R. Brooks,  G. K. L. Chan,  
 C. J. Cramer,  M. S. Gordon,  W. J. Hehre,  A. Klamt,  M. W. Schmidt,  
 C. D. Sherrill,  D. G. Truhlar,  A. Aspuru-Guzik,  R. Baer,  A. T. Bell,  
 N. A. Besley,  Jeng-Da Chai,  A. E. DePrince, III,  R. A. DiStasio Jr.,  
 A. Dreuw,  B. D. Dunietz,  T. R. Furlani,  Chao-Ping Hsu,  Yousung Jung,  
 Jing Kong,  D. S. Lambrecht,  WanZhen Liang,  C. Ochsenfeld,  
 V. A. Rassolov,  L. V. Slipchenko,  J. E. Subotnik,  T. Van Voorhis,  
 J. M. Herbert,  A. I. Krylov,  P. M. W. Gill,  M. Head-Gordon

 Contributors to earlier versions of Q-Chem not listed above: 
 R. D. Adamson,  B. Austin,  J. Baker,  G. J. O. Beran,  K. Brandhorst,  
 S. T. Brown,  E. F. C. Byrd,  A. K. Chakraborty,  C.-L. Cheng,  
 Siu Hung Chien,  D. M. Chipman,  D. L. Crittenden,  H. Dachsel,  
 R. J. Doerksen,  A. D. Dutoi,  L. Fusti-Molnar,  W. A. Goddard III,  
 A. Golubeva-Zadorozhnaya,  S. R. Gwaltney,  G. Hawkins,  A. Heyden,  
 S. Hirata,  G. Kedziora,  F. J. Keil,  C. Kelley,  Jihan Kim,  R. A. King,  
 R. Z. Khaliullin,  P. P. Korambath,  W. Kurlancheek,  A. M. Lee,  M. S. Lee,  
 S. V. Levchenko,  Ching Yeh Lin,  D. Liotard,  R. C. Lochan,  I. Lotan,  
 P. E. Maslen,  N. Nair,  D. P. O'Neill,  D. Neuhauser,  E. Neuscamman,  
 C. M. Oana,  R. Olson,  B. Peters,  R. Peverati,  P. A. Pieniazek,  
 Y. M. Rhee,  J. Ritchie,  M. A. Rohrdanz,  E. Rosta,  N. J. Russ,  
 H. F. Schaefer III,  N. E. Schultz,  N. Shenvi,  A. C. Simmonett,  A. Sodt,  
 D. Stuck,  K. S. Thanthiriwatte,  V. Vanovschi,  Tao Wang,  A. Warshel,  
 C. F. Williams,  Q. Wu,  X. Xu,  W. Zhang

 Please cite Q-Chem as follows:
 Y. Shao et al., Mol. Phys. 113, 184-215 (2015)
 DOI: 10.1080/00268976.2014.952696

 Q-Chem 5.3.0 for Intel X86 EM64T Linux

 Parts of Q-Chem use Armadillo 9.800.1 (Horizon Scraper).
 http://arma.sourceforge.net/

 Q-Chem begins on Mon Jul 13 15:30:32 2020  

Host: centos77-c5
0

     Scratch files written to /tmp/29025.centos77-h1/qchem92772//
Processing $rem in /opt/qchem-5.3.0-intel2020u1//config/preferences:
Processing $rem in /home/shihchengli/.qchemrc:

Checking the input file for inconsistencies... 	...done.

--------------------------------------------------------------
User input:
--------------------------------------------------------------
$rem
   JOBTYPE  sp
   EXCHANGE   omegaB97X-D
   BASIS   6-311+G(2df,2pd)
   UNRESTRICTED   True
   max_scf_cycles   250
   geom_opt_max_cycles   1500
   basis2 6-31G*
   scf_algorithm rca_diis
   SYM_IGNORE  TRUE
   print_input   true
   geom_opt_dmax   80
   pop_mulliken false
   XC_GRID 000075000302
$end

$molecule
0 3
N       0.6907972007     1.2260472273     2.4685326188
O       0.4099593706     2.1932721343     1.8383388380
O       1.5889231873     0.9903588114     3.2007196192
N       0.0072829277     -1.1259720294     3.1515611673
O       -0.4557518642     -1.3866472278     4.1928373540
O       -0.2962196920     0.1979301942     2.2483102927
$end
--------------------------------------------------------------
 ----------------------------------------------------------------
             Standard Nuclear Orientation (Angstroms)
    I     Atom           X                Y                Z
 ----------------------------------------------------------------
    1      N       0.6907972007     1.2260472273     2.4685326188
    2      O       0.4099593706     2.1932721343     1.8383388380
    3      O       1.5889231873     0.9903588114     3.2007196192
    4      N       0.0072829277    -1.1259720294     3.1515611673
    5      O      -0.4557518642    -1.3866472278     4.1928373540
    6      O      -0.2962196920     0.1979301942     2.2483102927
 ----------------------------------------------------------------
 Nuclear Repulsion Energy =         230.49368603 hartrees
 There are       24 alpha and       22 beta electrons
 Requested basis set is 6-311+G(2df,2pd)
 There are 48 shells and 204 basis functions

 Total QAlloc Memory Limit   2000 MB
 Mega-Array Size       188 MB
 MEM_STATIC part       192 MB

                       Distance Matrix (Angstroms)
             N (  1)   O (  2)   O (  3)   N (  4)   O (  5)
   O (  2)  1.188082
   O (  3)  1.182488  2.166342
   N (  4)  2.542777  3.592225  2.642510
   O (  5)  3.333763  4.371378  3.288640  1.169020
   O (  6)  1.442125  2.155958  2.255835  1.631163  2.513468
 
 A cutoff of  1.0D-09 yielded   1023 shell pairs
 There are     19084 function pairs (     25025 Cartesian)
 Smallest overlap matrix eigenvalue = 6.54E-04

 Scale SEOQF with 1.000000e-01/1.000000e-01/1.000000e-01

 Standard Electronic Orientation quadrupole field applied
 Nucleus-field energy     =    -0.0000000363 hartrees
 Requested basis set is 6-31G(d)
 There are 24 shells and 84 basis functions
 A cutoff of  1.0D-09 yielded    268 shell pairs
 There are      3534 function pairs (      4062 Cartesian)
 Smallest overlap matrix eigenvalue = 4.89E-03
 Guess from superposition of atomic densities
 Warning:  Energy on first SCF cycle will be non-variational
 SAD guess density has 46.000000 electrons
 Long-range K will be added via erf
 Coulomb attenuation parameter = 0.2 bohr**(-1)
 An unrestricted hybrid HF-DFT SCF calculation will be
 performed using Relaxed Constraint Minimization + Pulay DIIS
 Exchange:     0.2220 Hartree-Fock + 1.0000 wB97X-D + LR-HF
 Correlation:  1.0000 wB97X-D
 Using Euler-Maclaurin-Lebedev (75,302) quadrature formula
 Dispersion:   Grimme D
 SCF converges when DIIS error is below 1.0E-04
 using 6 threads for integral computing
 -------------------------------------------------------
 OpenMP Integral computing Module                
 Release: version 1.0, May 2013, Q-Chem Inc. Pittsburgh 
 -------------------------------------------------------
 using 6 threads for integral computing
 -------------------------------------------------------
 OpenMP Integral computing Module                
 Release: version 1.0, May 2013, Q-Chem Inc. Pittsburgh 
 -------------------------------------------------------
 ---------------------------------------
  Cycle       Energy         DIIS Error
 ---------------------------------------
    1    -411.0143040816      8.81E-02
    2    -409.6575551556      1.95E-02
    3    -409.7616096253      4.46E-03
    4    -409.9101005069      4.77E-03
    5    -409.9164976774      6.70E-04 Done RCA. Switching to DIIS
    6    -409.9249932118      6.06E-04
    7    -409.9254124138      8.78E-05 Convergence criterion met
 ---------------------------------------
 <S^2> = 2.0145
 SCF time:  CPU 13.25 s  wall 2.22 s
 SCF   energy in the small basis set = -409.92541241
 Total energy in the small basis set = -409.92541241
 ----------------------------------------------------
  Cycle       Energy    
 ----------------------------------------------------
    1     -41.7502458865     -4.18E+01
 Long-range K will be added via erf
 Coulomb attenuation parameter = 0.2 bohr**(-1)
 An unrestricted hybrid HF-DFT SCF calculation will be
 performed using Relaxed Constraint Minimization + Pulay DIIS
 Exchange:     0.2220 Hartree-Fock + 1.0000 wB97X-D + LR-HF
 Correlation:  1.0000 wB97X-D
 Using Euler-Maclaurin-Lebedev (75,302) quadrature formula
 Dispersion:   Grimme D
 SCF converges when DIIS error is below 1.0E-05
 Basis2 calculation detected. Using small basis as guess for larger.
 SCFMinFind is unable to tell whether the solution found is close.
 Resetting ReadMinima to 0 and attempting to follow guess.
 SCFMinFind following SCF Guess.
 using 6 threads for integral computing
 -------------------------------------------------------
 OpenMP Integral computing Module                
 Release: version 1.0, May 2013, Q-Chem Inc. Pittsburgh 
 -------------------------------------------------------
 using 6 threads for integral computing
 -------------------------------------------------------
 OpenMP Integral computing Module                
 Release: version 1.0, May 2013, Q-Chem Inc. Pittsburgh 
 -------------------------------------------------------
 ---------------------------------------
  Cycle       Energy         DIIS Error
 ---------------------------------------
    1    -410.0166014572      8.01E-03
    2    -410.0268655604      4.06E-03
    3    -410.0473998555      1.07E-03
    4    -410.0759985164      1.16E-03
    5    -410.0778974036      1.91E-04 Done RCA. Switching to DIIS
    6    -410.0805106284      2.06E-04
    7    -410.0806929804      4.51E-05
    8    -410.0807314906      1.88E-05
    9    -410.0807456378      8.85E-06 Convergence criterion met
 ---------------------------------------
 <S^2> = 2.0171
 SCF time:  CPU 59.40 s  wall 9.93 s
 SCF   energy in the final basis set = -410.08074564
 Total energy in the final basis set = -410.08074564
 
 --------------------------------------------------------------
 
                    Orbital Energies (a.u.)
 --------------------------------------------------------------
 
 Alpha MOs
 -- Occupied --
-19.4103 -19.3987 -19.3513 -19.3488 -14.7726 -14.6232  -1.4427  -1.3674
 -1.2602  -1.2043  -0.8753  -0.7759  -0.7199  -0.7168  -0.6847  -0.6564
 -0.6340  -0.6329  -0.4984  -0.4961  -0.4654  -0.4593  -0.4351  -0.3410
 -- Virtual --
 -0.0249   0.0078   0.0712   0.1103   0.1206   0.1355   0.1382   0.1701
  0.1787   0.1862   0.2280   0.2424   0.2515   0.2673   0.2685   0.2916
  0.3070   0.3273   0.3420   0.3432   0.3493   0.3603   0.3689   0.3936
  0.4004   0.4342   0.4425   0.4598   0.4900   0.5263   0.7408   0.7633
  0.8013   0.8316   0.8658   0.8807   0.9286   0.9512   0.9808   1.0115
  1.0232   1.0496   1.0616   1.0775   1.0797   1.0848   1.1184   1.1221
  1.1407   1.1551   1.1607   1.1710   1.2169   1.2380   1.2658   1.3214
  1.4536   1.4724   1.5140   1.5446   1.5683   1.5700   1.5972   1.6022
  1.6395   1.6789   1.7063   1.7860   1.8142   1.8919   1.9192   1.9422
  2.0045   2.1281   2.1954   2.2288   2.3349   2.3737   2.4570   2.5042
  2.5399   2.5665   2.6876   2.8071   3.4959   3.5297   3.5748   3.6117
  3.6242   3.6615   3.6829   3.7130   3.7278   3.7702   3.7952   3.8885
  3.9427   3.9985   4.0193   4.0648   4.0896   4.4222   4.4515   4.4834
  4.4938   4.5966   4.6481   4.6590   4.6928   4.7062   4.7413   4.7768
  4.8198   4.8827   4.9979   5.0018   5.0248   5.0253   5.0415   5.0460
  5.0572   5.0814   5.0840   5.1128   5.1225   5.1400   5.1696   5.1723
  5.2055   5.2768   5.3171   5.3655   5.4003   5.4360   5.4551   5.5005
  5.5301   5.5576   5.6297   5.6704   5.8085   5.8267   5.9899   6.1165
  6.3093   6.5347   6.6444   6.6504   6.6992   6.7271   6.7350   6.7661
  6.7914   6.8263   6.8790   6.9126   6.9608   6.9932   7.0897   7.0967
  7.1607   7.1700   7.1888   7.2662   7.3065   7.3472   7.4547   7.5635
  7.6703   7.6899   7.8016   7.8532   7.9005   8.2808  35.9068  36.1197
 49.9849  50.1674  50.2354  50.2614
 
 Beta MOs
 -- Occupied --
-19.3972 -19.3811 -19.3495 -19.3492 -14.7723 -14.6042  -1.4386  -1.3291
 -1.2581  -1.1702  -0.8309  -0.7440  -0.7146  -0.7042  -0.6734  -0.6056
 -0.5833  -0.5581  -0.4780  -0.4708  -0.4639  -0.4486
 -- Virtual --
 -0.1406  -0.0216  -0.0107   0.0571   0.0847   0.1193   0.1305   0.1396
  0.1424   0.1725   0.1822   0.1902   0.2293   0.2465   0.2545   0.2692
  0.2713   0.2940   0.3142   0.3289   0.3428   0.3452   0.3511   0.3623
  0.3706   0.4010   0.4100   0.4375   0.4460   0.4656   0.5099   0.5315
  0.7513   0.7733   0.8158   0.8494   0.8801   0.8864   0.9321   0.9595
  0.9921   1.0239   1.0276   1.0652   1.0737   1.0872   1.0931   1.1012
  1.1287   1.1303   1.1478   1.1647   1.1725   1.1827   1.2280   1.2458
  1.2826   1.3363   1.4642   1.4911   1.5191   1.5483   1.5723   1.5870
  1.6126   1.6163   1.6548   1.7067   1.7152   1.7896   1.8212   1.9021
  1.9258   1.9538   2.0243   2.1413   2.2086   2.2417   2.3479   2.3823
  2.4727   2.5189   2.5429   2.5737   2.6962   2.8110   3.5231   3.5693
  3.5918   3.6274   3.6458   3.6637   3.6965   3.7212   3.7398   3.8029
  3.8624   3.9093   3.9699   4.0139   4.0202   4.0834   4.1079   4.4247
  4.4566   4.4888   4.4961   4.6267   4.6572   4.6994   4.7231   4.7289
  4.7684   4.8161   4.8602   4.9337   5.0147   5.0182   5.0429   5.0465
  5.0543   5.0640   5.0723   5.0874   5.1042   5.1271   5.1395   5.1627
  5.1951   5.2023   5.2188   5.3022   5.3377   5.3839   5.4026   5.4505
  5.4667   5.5252   5.5394   5.5806   5.6506   5.6890   5.8151   5.8326
  6.0055   6.1528   6.3192   6.5368   6.6574   6.6940   6.7340   6.7690
  6.7906   6.7963   6.8000   6.8323   6.8812   6.9139   6.9880   7.0080
  7.1054   7.1181   7.1664   7.2026   7.2188   7.2728   7.3245   7.3597
  7.4831   7.5701   7.6946   7.7183   7.8114   7.8761   7.9059   8.2830
 35.9298  36.1203  49.9988  50.1838  50.2371  50.2614
 --------------------------------------------------------------
 
 -----------------------------------------------------------------
                    Cartesian Multipole Moments
 -----------------------------------------------------------------
    Charge (ESU x 10^10)
                -0.0000
    Dipole Moment (Debye)
         X      -0.2205      Y      -0.7308      Z       0.0818
       Tot       0.7677
    Quadrupole Moments (Debye-Ang)
        XX     -32.9678     XY      -1.0007     YY     -33.4159
        XZ      -1.8307     YZ      -0.6284     ZZ     -32.2282
    Octopole Moments (Debye-Ang^2)
       XXX     -33.6297    XXY     -12.9293    XYY     -11.4749
       YYY     -41.0820    XXZ     -95.6515    XYZ      -4.1532
       YYZ     -91.7339    XZZ     -17.9086    YZZ      -9.0151
       ZZZ    -277.2087
    Hexadecapole Moments (Debye-Ang^3)
      XXXX    -138.3875   XXXY     -64.2556   XXYY     -84.5072
      XYYY     -67.0466   YYYY    -369.5914   XXXZ     -90.1139
      XXYZ     -13.9767   XYYZ     -28.7666   YYYZ     -35.5102
      XXZZ    -321.2879   XYZZ     -36.3820   YYZZ    -337.7162
      XZZZ    -105.9819   YZZZ      -3.3528   ZZZZ   -1718.9954
 -----------------------------------------------------------------
Archival summary:
1\1\centos77-c5\SP\ProcedureUnspecified\BasisUnspecified\42(3)\shihchen\MonJul1315:30:472020MonJul1315:30:472020\0\\#,ProcedureUnspecified,BasisUnspecified,\\0,3\N\O,1,1.18249\O,1,1.18808,2,132.085\O,1,1.44213,2,118.183,3,-179.777,0\N,4,1.63116,1,111.513,2,2.63925,0\O,5,1.16902,4,126.907,1,95.6949,0\\\@

 Total job time:  14.56s(wall), 77.01s(cpu) 
 Mon Jul 13 15:30:47 2020

        *************************************************************
        *                                                           *
        *  Thank you very much for using Q-Chem.  Have a nice day.  *
        *                                                           *
        *************************************************************


