                  Welcome to Q-Chem
     A Quantum Leap Into The Future Of Chemistry


 Q-Chem 5.3 (devel), Q-Chem, Inc., Pleasanton, CA (2020)

 Yihan Shao,  Zhengting Gan,  E. Epifanovsky,  A. T. B. Gilbert,  M. Wormit,  
 J. Kussmann,  A. W. Lange,  A. Behn,  Jia Deng,  Xintian Feng,  D. Ghosh,  
 M. Goldey,  P. R. Horn,  L. D. Jacobson,  I. Kaliman,  T. Kus,  A. Landau,  
 Jie Liu,  E. I. Proynov,  R. M. Richard,  R. P. Steele,  E. J. Sundstrom,  
 H. L. Woodcock III,  P. M. Zimmerman,  D. Zuev,  B. Alam,  B. Albrecht,  
 E. Alguire,  S. A. Baeppler,  D. Barton,  Z. Benda,  Y. A. Bernard,  
 E. J. Berquist,  K. B. Bravaya,  H. Burton,  K. Carter-Fenk,  D. Casanova,  
 Chun-Min Chang,  Yunqing Chen,  A. Chien,  K. D. Closser,  M. P. Coons,  
 S. Coriani,  S. Dasgupta,  A. L. Dempwolff,  M. Diedenhofen,  Hainam Do,  
 R. G. Edgar,  Po-Tung Fang,  S. Faraji,  S. Fatehi,  Qingguo Feng,  
 J. Fosso-Tande,  J. Gayvert,  Qinghui Ge,  A. Ghysels,  G. Gidofalvi,  
 J. Gomes,  J. Gonthier,  A. Gunina,  D. Hait,  M. W. D. Hanson-Heine,  
 P. H. P. Harbach,  A. W. Hauser,  M. F. Herbst,  J. E. Herr,  
 E. G. Hohenstein,  Z. C. Holden,  Kerwin Hui,  B. C. Huynh,  T.-C. Jagau,  
 Hyunjun Ji,  B. Kaduk,  K. Khistyaev,  Jaehoon Kim,  P. Klunzinger,  K. Koh,  
 D. Kosenkov,  L. Koulias,  T. Kowalczyk,  C. M. Krauter,  A. Kunitsa,  
 Ka Un Lao,  A. Laurent,  K. V. Lawler,  Joonho Lee,  D. Lefrancois,  
 S. Lehtola,  D. S. Levine,  Yi-Pei Li,  You-Sheng Lin,  Fenglai Liu,  
 Kuan-Yu Liu,  E. Livshits,  M. Loipersberger,  A. Luenser,  P. Manohar,  
 E. Mansoor,  S. F. Manzer,  Shan-Ping Mao,  Yuezhi Mao,  N. Mardirossian,  
 A. V. Marenich,  T. Markovich,  L. A. Martinez-Martinez,  S. A. Maurer,  
 N. J. Mayhall,  S. C. McKenzie,  J.-M. Mewes,  P. Morgante,  A. F. Morrison,  
 J. W. Mullinax,  K. Nanda,  T. S. Nguyen-Beck,  R. Olivares-Amaya,  
 K. J. Oosterbaan,  J. A. Parkhill,  S. K. Paul,  F. Pavosevic,  Zheng Pei,  
 T. M. Perrine,  F. Plasser,  P. Pokhilko,  S. Prager,  A. Prociuk,  
 E. Ramos,  B. Rana,  D. R. Rehn,  F. Rob,  M. Scheurer,  M. Schneider,  
 N. Sergueev,  S. M. Sharada,  S. Sharma,  D. W. Small,  T. Stauch,  
 C. J. Stein,  T. Stein,  Yu-Chuan Su,  S. P. Veccham,  Zhen Tao,  
 A. J. W. Thom,  A. Tkatchenko,  T. Tsuchimochi,  N. M. Tubman,  L. Vogt,  
 M. L. Vidal,  O. Vydrov,  M. A. Watson,  J. Wenzel,  M. de Wergifosse,  
 T. A. Wesolowski,  A. White,  J. Witte,  A. Yamada,  Jun Yang,  K. Yao,  
 S. Yeganeh,  S. R. Yost,  Zhi-Qiang You,  A. Zech,  Igor Ying Zhang,  
 Xing Zhang,  Yan Zhao,  Ying Zhu,  B. R. Brooks,  G. K. L. Chan,  
 C. J. Cramer,  M. S. Gordon,  W. J. Hehre,  A. Klamt,  M. W. Schmidt,  
 C. D. Sherrill,  D. G. Truhlar,  A. Aspuru-Guzik,  R. Baer,  A. T. Bell,  
 N. A. Besley,  Jeng-Da Chai,  A. E. DePrince, III,  R. A. DiStasio Jr.,  
 A. Dreuw,  B. D. Dunietz,  T. R. Furlani,  Chao-Ping Hsu,  Yousung Jung,  
 Jing Kong,  D. S. Lambrecht,  WanZhen Liang,  C. Ochsenfeld,  
 V. A. Rassolov,  L. V. Slipchenko,  J. E. Subotnik,  T. Van Voorhis,  
 J. M. Herbert,  A. I. Krylov,  P. M. W. Gill,  M. Head-Gordon

 Contributors to earlier versions of Q-Chem not listed above: 
 R. D. Adamson,  B. Austin,  J. Baker,  G. J. O. Beran,  K. Brandhorst,  
 S. T. Brown,  E. F. C. Byrd,  A. K. Chakraborty,  C.-L. Cheng,  
 Siu Hung Chien,  D. M. Chipman,  D. L. Crittenden,  H. Dachsel,  
 R. J. Doerksen,  A. D. Dutoi,  L. Fusti-Molnar,  W. A. Goddard III,  
 A. Golubeva-Zadorozhnaya,  S. R. Gwaltney,  G. Hawkins,  A. Heyden,  
 S. Hirata,  G. Kedziora,  F. J. Keil,  C. Kelley,  Jihan Kim,  R. A. King,  
 R. Z. Khaliullin,  P. P. Korambath,  W. Kurlancheek,  A. M. Lee,  M. S. Lee,  
 S. V. Levchenko,  Ching Yeh Lin,  D. Liotard,  R. C. Lochan,  I. Lotan,  
 P. E. Maslen,  N. Nair,  D. P. O'Neill,  D. Neuhauser,  E. Neuscamman,  
 C. M. Oana,  R. Olson,  B. Peters,  R. Peverati,  P. A. Pieniazek,  
 Y. M. Rhee,  J. Ritchie,  M. A. Rohrdanz,  E. Rosta,  N. J. Russ,  
 H. F. Schaefer III,  N. E. Schultz,  N. Shenvi,  A. C. Simmonett,  A. Sodt,  
 D. Stuck,  K. S. Thanthiriwatte,  V. Vanovschi,  Tao Wang,  A. Warshel,  
 C. F. Williams,  Q. Wu,  X. Xu,  W. Zhang

 Please cite Q-Chem as follows:
 Y. Shao et al., Mol. Phys. 113, 184-215 (2015)
 DOI: 10.1080/00268976.2014.952696

 Q-Chem 5.3.0 for Intel X86 EM64T Linux

 Parts of Q-Chem use Armadillo 9.800.1 (Horizon Scraper).
 http://arma.sourceforge.net/

 Q-Chem begins on Mon Jul 13 15:41:50 2020  

Host: centos77-c5
0

     Scratch files written to /tmp/29025.centos77-h1/qchem33406//
Processing $rem in /opt/qchem-5.3.0-intel2020u1//config/preferences:
Processing $rem in /home/shihchengli/.qchemrc:

Checking the input file for inconsistencies... 	...done.

--------------------------------------------------------------
User input:
--------------------------------------------------------------
$rem
   JOBTYPE  sp
   EXCHANGE   omegaB97X-D
   BASIS   6-311+G(2df,2pd)
   UNRESTRICTED   True
   max_scf_cycles   250
   geom_opt_max_cycles   1500
   basis2 6-31G*
   scf_algorithm rca_diis
   SYM_IGNORE  TRUE
   print_input   true
   geom_opt_dmax   80
   pop_mulliken false
   XC_GRID 000075000302
$end

$molecule
0 3
N       0.6497552240     1.1991297746     2.5008041842
O       0.3879091185     2.1773674405     1.8772189533
O       1.6209843226     1.0017059606     3.1464954649
N       0.0467525963     -1.1424506847     3.1553778110
O       -0.5095835390     -1.3310995174     4.1659461435
O       -0.2508265924     0.1903361363     2.2544573330
$end
--------------------------------------------------------------
 ----------------------------------------------------------------
             Standard Nuclear Orientation (Angstroms)
    I     Atom           X                Y                Z
 ----------------------------------------------------------------
    1      N       0.6497552240     1.1991297746     2.5008041842
    2      O       0.3879091185     2.1773674405     1.8772189533
    3      O       1.6209843226     1.0017059606     3.1464954649
    4      N       0.0467525963    -1.1424506847     3.1553778110
    5      O      -0.5095835390    -1.3310995174     4.1659461435
    6      O      -0.2508265924     0.1903361363     2.2544573330
 ----------------------------------------------------------------
 Nuclear Repulsion Energy =         232.92645890 hartrees
 There are       24 alpha and       22 beta electrons
 Requested basis set is 6-311+G(2df,2pd)
 There are 48 shells and 204 basis functions

 Total QAlloc Memory Limit   2000 MB
 Mega-Array Size       188 MB
 MEM_STATIC part       192 MB

                       Distance Matrix (Angstroms)
             N (  1)   O (  2)   O (  3)   N (  4)   O (  5)
   O (  2)  1.189273
   O (  3)  1.182869  2.124551
   N (  4)  2.505011  3.573691  2.660017
   O (  5)  3.243274  4.284052  3.319726  1.168908
   O (  6)  1.374554  2.120987  2.226596  1.636011  2.456728
 
 A cutoff of  1.0D-09 yielded   1028 shell pairs
 There are     19205 function pairs (     25205 Cartesian)
 Smallest overlap matrix eigenvalue = 6.61E-04

 Scale SEOQF with 1.000000e-01/1.000000e-01/1.000000e-01

 Standard Electronic Orientation quadrupole field applied
 Nucleus-field energy     =    -0.0000000362 hartrees
 Requested basis set is 6-31G(d)
 There are 24 shells and 84 basis functions
 A cutoff of  1.0D-09 yielded    268 shell pairs
 There are      3534 function pairs (      4062 Cartesian)
 Smallest overlap matrix eigenvalue = 5.19E-03
 Guess from superposition of atomic densities
 Warning:  Energy on first SCF cycle will be non-variational
 SAD guess density has 46.000000 electrons
 Long-range K will be added via erf
 Coulomb attenuation parameter = 0.2 bohr**(-1)
 An unrestricted hybrid HF-DFT SCF calculation will be
 performed using Relaxed Constraint Minimization + Pulay DIIS
 Exchange:     0.2220 Hartree-Fock + 1.0000 wB97X-D + LR-HF
 Correlation:  1.0000 wB97X-D
 Using Euler-Maclaurin-Lebedev (75,302) quadrature formula
 Dispersion:   Grimme D
 SCF converges when DIIS error is below 1.0E-04
 using 6 threads for integral computing
 -------------------------------------------------------
 OpenMP Integral computing Module                
 Release: version 1.0, May 2013, Q-Chem Inc. Pittsburgh 
 -------------------------------------------------------
 using 6 threads for integral computing
 -------------------------------------------------------
 OpenMP Integral computing Module                
 Release: version 1.0, May 2013, Q-Chem Inc. Pittsburgh 
 -------------------------------------------------------
 ---------------------------------------
  Cycle       Energy         DIIS Error
 ---------------------------------------
    1    -411.1172098869      9.00E-02
    2    -409.6474025819      1.98E-02
    3    -409.7526459010      4.78E-03
    4    -409.9055110288      5.11E-03
    5    -409.9127610328      6.53E-04 Done RCA. Switching to DIIS
    6    -409.9221653676      5.62E-04
    7    -409.9225558088      1.39E-04
    8    -409.9226284368      7.92E-05 Convergence criterion met
 ---------------------------------------
 <S^2> = 2.0152
 SCF time:  CPU 14.32 s  wall 2.40 s
 SCF   energy in the small basis set = -409.92262844
 Total energy in the small basis set = -409.92262844
 ----------------------------------------------------
  Cycle       Energy    
 ----------------------------------------------------
    1     -41.7848671573     -4.18E+01
 Long-range K will be added via erf
 Coulomb attenuation parameter = 0.2 bohr**(-1)
 An unrestricted hybrid HF-DFT SCF calculation will be
 performed using Relaxed Constraint Minimization + Pulay DIIS
 Exchange:     0.2220 Hartree-Fock + 1.0000 wB97X-D + LR-HF
 Correlation:  1.0000 wB97X-D
 Using Euler-Maclaurin-Lebedev (75,302) quadrature formula
 Dispersion:   Grimme D
 SCF converges when DIIS error is below 1.0E-05
 Basis2 calculation detected. Using small basis as guess for larger.
 SCFMinFind is unable to tell whether the solution found is close.
 Resetting ReadMinima to 0 and attempting to follow guess.
 SCFMinFind following SCF Guess.
 using 6 threads for integral computing
 -------------------------------------------------------
 OpenMP Integral computing Module                
 Release: version 1.0, May 2013, Q-Chem Inc. Pittsburgh 
 -------------------------------------------------------
 using 6 threads for integral computing
 -------------------------------------------------------
 OpenMP Integral computing Module                
 Release: version 1.0, May 2013, Q-Chem Inc. Pittsburgh 
 -------------------------------------------------------
 ---------------------------------------
  Cycle       Energy         DIIS Error
 ---------------------------------------
    1    -409.9985154158      8.13E-03
    2    -409.9927286767      4.96E-03
    3    -410.0219616721      1.59E-03
    4    -410.0659677382      1.23E-03
    5    -410.0706544648      3.83E-04 Done RCA. Switching to DIIS
    6    -410.0764478178      5.76E-04
    7    -410.0779214777      7.97E-05
    8    -410.0781895811      3.43E-05
    9    -410.0782768096      2.07E-05
   10    -410.0783052503      1.25E-05
   11    -410.0783095622      7.16E-06 Convergence criterion met
 ---------------------------------------
 <S^2> = 2.0176
 SCF time:  CPU 70.16 s  wall 11.72 s
 SCF   energy in the final basis set = -410.07830956
 Total energy in the final basis set = -410.07830956
 
 --------------------------------------------------------------
 
                    Orbital Energies (a.u.)
 --------------------------------------------------------------
 
 Alpha MOs
 -- Occupied --
-19.4222 -19.4049 -19.3421 -19.3378 -14.7721 -14.6260  -1.4525  -1.3740
 -1.2505  -1.2281  -0.8869  -0.7790  -0.7246  -0.7160  -0.6895  -0.6558
 -0.6370  -0.6343  -0.5064  -0.5029  -0.4623  -0.4570  -0.4340  -0.3458
 -- Virtual --
 -0.0222   0.0056   0.0824   0.1170   0.1337   0.1369   0.1438   0.1723
  0.1805   0.1857   0.2268   0.2412   0.2488   0.2703   0.2713   0.2902
  0.3050   0.3300   0.3414   0.3516   0.3563   0.3627   0.3706   0.3897
  0.4083   0.4351   0.4444   0.4583   0.4891   0.5135   0.7303   0.7721
  0.8014   0.8249   0.8589   0.8768   0.9428   0.9568   0.9731   1.0135
  1.0155   1.0444   1.0536   1.0690   1.0884   1.0975   1.1145   1.1247
  1.1437   1.1512   1.1579   1.1645   1.2120   1.2458   1.2705   1.3268
  1.4505   1.4692   1.5217   1.5536   1.5799   1.5948   1.6059   1.6192
  1.6316   1.6708   1.7147   1.8047   1.8166   1.8974   1.9233   1.9530
  2.0166   2.1284   2.2088   2.2355   2.3506   2.3605   2.4342   2.4941
  2.5471   2.5711   2.7039   2.8052   3.5010   3.5312   3.5876   3.6221
  3.6535   3.6749   3.6888   3.7076   3.7540   3.7717   3.7946   3.9075
  3.9526   4.0022   4.0230   4.1102   4.1324   4.4404   4.4441   4.4862
  4.5224   4.5828   4.6259   4.6411   4.6808   4.6937   4.7418   4.7715
  4.8207   4.9013   4.9942   4.9977   5.0201   5.0253   5.0454   5.0534
  5.0672   5.0777   5.0899   5.1245   5.1339   5.1461   5.1628   5.1746
  5.2055   5.2609   5.3044   5.3573   5.4031   5.4312   5.4877   5.5161
  5.5412   5.6075   5.6344   5.7344   5.8560   5.9919   6.0302   6.1220
  6.3234   6.6010   6.6474   6.6639   6.7014   6.7258   6.7367   6.7804
  6.7962   6.8262   6.8471   6.8742   6.9522   7.0080   7.0974   7.1290
  7.1633   7.1957   7.2031   7.2580   7.3233   7.4497   7.4969   7.5943
  7.6851   7.6911   7.8536   7.8973   7.9183   8.1672  35.9074  36.1595
 50.0056  50.1606  50.2375  50.2728
 
 Beta MOs
 -- Occupied --
-19.4092 -19.3869 -19.3396 -19.3381 -14.7720 -14.6076  -1.4468  -1.3358
 -1.2474  -1.1975  -0.8422  -0.7435  -0.7207  -0.7036  -0.6711  -0.6057
 -0.5881  -0.5620  -0.4863  -0.4748  -0.4561  -0.4360
 -- Virtual --
 -0.1577  -0.0205  -0.0100   0.0567   0.0884   0.1210   0.1374   0.1409
  0.1567   0.1760   0.1847   0.1899   0.2280   0.2455   0.2519   0.2721
  0.2738   0.2921   0.3123   0.3314   0.3433   0.3532   0.3578   0.3647
  0.3728   0.4035   0.4119   0.4399   0.4469   0.4639   0.5066   0.5198
  0.7413   0.7803   0.8148   0.8453   0.8721   0.8820   0.9486   0.9603
  0.9852   1.0212   1.0256   1.0561   1.0666   1.0889   1.0959   1.1087
  1.1237   1.1374   1.1511   1.1617   1.1719   1.1743   1.2224   1.2564
  1.2857   1.3421   1.4639   1.4815   1.5278   1.5585   1.5908   1.6032
  1.6171   1.6399   1.6493   1.6964   1.7218   1.8153   1.8220   1.9057
  1.9330   1.9686   2.0286   2.1484   2.2208   2.2416   2.3638   2.3703
  2.4506   2.5085   2.5487   2.5765   2.7141   2.8096   3.5307   3.5661
  3.6048   3.6399   3.6672   3.6806   3.7000   3.7206   3.7719   3.8019
  3.8566   3.9235   3.9855   4.0107   4.0362   4.1209   4.1454   4.4434
  4.4497   4.4911   4.5250   4.6048   4.6324   4.6811   4.7125   4.7159
  4.7658   4.8103   4.8676   4.9512   5.0140   5.0174   5.0472   5.0526
  5.0555   5.0609   5.0794   5.0900   5.1200   5.1372   5.1437   5.1700
  5.1836   5.2017   5.2212   5.2856   5.3188   5.3705   5.4228   5.4408
  5.5042   5.5427   5.5618   5.6146   5.6649   5.7412   5.8596   6.0006
  6.0472   6.1550   6.3368   6.6058   6.6845   6.6924   6.7251   6.7841
  6.7897   6.7986   6.8019   6.8305   6.8561   6.8754   6.9845   7.0244
  7.1174   7.1467   7.1915   7.2033   7.2281   7.2681   7.3527   7.4670
  7.5148   7.6018   7.7096   7.7191   7.8608   7.9142   7.9288   8.1696
 35.9295  36.1598  50.0191  50.1774  50.2395  50.2731
 --------------------------------------------------------------
 
 -----------------------------------------------------------------
                    Cartesian Multipole Moments
 -----------------------------------------------------------------
    Charge (ESU x 10^10)
                -0.0000
    Dipole Moment (Debye)
         X      -0.5087      Y      -1.0750      Z       0.1637
       Tot       1.2005
    Quadrupole Moments (Debye-Ang)
        XX     -33.4347     XY      -1.2931     YY     -33.8423
        XZ      -2.5614     YZ      -1.5773     ZZ     -31.5436
    Octopole Moments (Debye-Ang^2)
       XXX     -34.6343    XXY     -13.4632    XYY     -11.8375
       YYY     -42.8207    XXZ     -96.9663    XYZ      -5.0143
       YYZ     -92.3611    XZZ     -19.8254    YZZ     -11.9566
       ZZZ    -273.4494
    Hexadecapole Moments (Debye-Ang^3)
      XXXX    -141.6051   XXXY     -64.1829   XXYY     -84.5065
      XYYY     -66.2296   YYYY    -365.0823   XXXZ     -91.7499
      XXYZ     -16.3289   XYYZ     -29.5776   YYYZ     -43.9249
      XXZZ    -324.3263   XYZZ     -38.5217   YYZZ    -335.1146
      XZZZ    -110.1399   YZZZ     -16.8648   ZZZZ   -1694.8009
 -----------------------------------------------------------------
Archival summary:
1\1\centos77-c5\SP\ProcedureUnspecified\BasisUnspecified\42(3)\shihchen\MonJul1315:42:072020MonJul1315:42:072020\0\\#,ProcedureUnspecified,BasisUnspecified,\\0,3\N\O,1,1.18287\O,1,1.18927,2,127.178\O,1,1.37455,2,120.884,3,171.135,0\N,4,1.63601,1,112.335,2,10.3242,0\O,5,1.16891,4,121.399,1,95.6221,0\\\@

 Total job time:  16.48s(wall), 88.56s(cpu) 
 Mon Jul 13 15:42:07 2020

        *************************************************************
        *                                                           *
        *  Thank you very much for using Q-Chem.  Have a nice day.  *
        *                                                           *
        *************************************************************


