                  Welcome to Q-Chem
     A Quantum Leap Into The Future Of Chemistry


 Q-Chem 5.3 (devel), Q-Chem, Inc., Pleasanton, CA (2020)

 Yihan Shao,  Zhengting Gan,  E. Epifanovsky,  A. T. B. Gilbert,  M. Wormit,  
 J. Kussmann,  A. W. Lange,  A. Behn,  Jia Deng,  Xintian Feng,  D. Ghosh,  
 M. Goldey,  P. R. Horn,  L. D. Jacobson,  I. Kaliman,  T. Kus,  A. Landau,  
 Jie Liu,  E. I. Proynov,  R. M. Richard,  R. P. Steele,  E. J. Sundstrom,  
 H. L. Woodcock III,  P. M. Zimmerman,  D. Zuev,  B. Alam,  B. Albrecht,  
 E. Alguire,  S. A. Baeppler,  D. Barton,  Z. Benda,  Y. A. Bernard,  
 E. J. Berquist,  K. B. Bravaya,  H. Burton,  K. Carter-Fenk,  D. Casanova,  
 Chun-Min Chang,  Yunqing Chen,  A. Chien,  K. D. Closser,  M. P. Coons,  
 S. Coriani,  S. Dasgupta,  A. L. Dempwolff,  M. Diedenhofen,  Hainam Do,  
 R. G. Edgar,  Po-Tung Fang,  S. Faraji,  S. Fatehi,  Qingguo Feng,  
 J. Fosso-Tande,  J. Gayvert,  Qinghui Ge,  A. Ghysels,  G. Gidofalvi,  
 J. Gomes,  J. Gonthier,  A. Gunina,  D. Hait,  M. W. D. Hanson-Heine,  
 P. H. P. Harbach,  A. W. Hauser,  M. F. Herbst,  J. E. Herr,  
 E. G. Hohenstein,  Z. C. Holden,  Kerwin Hui,  B. C. Huynh,  T.-C. Jagau,  
 Hyunjun Ji,  B. Kaduk,  K. Khistyaev,  Jaehoon Kim,  P. Klunzinger,  K. Koh,  
 D. Kosenkov,  L. Koulias,  T. Kowalczyk,  C. M. Krauter,  A. Kunitsa,  
 Ka Un Lao,  A. Laurent,  K. V. Lawler,  Joonho Lee,  D. Lefrancois,  
 S. Lehtola,  D. S. Levine,  Yi-Pei Li,  You-Sheng Lin,  Fenglai Liu,  
 Kuan-Yu Liu,  E. Livshits,  M. Loipersberger,  A. Luenser,  P. Manohar,  
 E. Mansoor,  S. F. Manzer,  Shan-Ping Mao,  Yuezhi Mao,  N. Mardirossian,  
 A. V. Marenich,  T. Markovich,  L. A. Martinez-Martinez,  S. A. Maurer,  
 N. J. Mayhall,  S. C. McKenzie,  J.-M. Mewes,  P. Morgante,  A. F. Morrison,  
 J. W. Mullinax,  K. Nanda,  T. S. Nguyen-Beck,  R. Olivares-Amaya,  
 K. J. Oosterbaan,  J. A. Parkhill,  S. K. Paul,  F. Pavosevic,  Zheng Pei,  
 T. M. Perrine,  F. Plasser,  P. Pokhilko,  S. Prager,  A. Prociuk,  
 E. Ramos,  B. Rana,  D. R. Rehn,  F. Rob,  M. Scheurer,  M. Schneider,  
 N. Sergueev,  S. M. Sharada,  S. Sharma,  D. W. Small,  T. Stauch,  
 C. J. Stein,  T. Stein,  Yu-Chuan Su,  S. P. Veccham,  Zhen Tao,  
 A. J. W. Thom,  A. Tkatchenko,  T. Tsuchimochi,  N. M. Tubman,  L. Vogt,  
 M. L. Vidal,  O. Vydrov,  M. A. Watson,  J. Wenzel,  M. de Wergifosse,  
 T. A. Wesolowski,  A. White,  J. Witte,  A. Yamada,  Jun Yang,  K. Yao,  
 S. Yeganeh,  S. R. Yost,  Zhi-Qiang You,  A. Zech,  Igor Ying Zhang,  
 Xing Zhang,  Yan Zhao,  Ying Zhu,  B. R. Brooks,  G. K. L. Chan,  
 C. J. Cramer,  M. S. Gordon,  W. J. Hehre,  A. Klamt,  M. W. Schmidt,  
 C. D. Sherrill,  D. G. Truhlar,  A. Aspuru-Guzik,  R. Baer,  A. T. Bell,  
 N. A. Besley,  Jeng-Da Chai,  A. E. DePrince, III,  R. A. DiStasio Jr.,  
 A. Dreuw,  B. D. Dunietz,  T. R. Furlani,  Chao-Ping Hsu,  Yousung Jung,  
 Jing Kong,  D. S. Lambrecht,  WanZhen Liang,  C. Ochsenfeld,  
 V. A. Rassolov,  L. V. Slipchenko,  J. E. Subotnik,  T. Van Voorhis,  
 J. M. Herbert,  A. I. Krylov,  P. M. W. Gill,  M. Head-Gordon

 Contributors to earlier versions of Q-Chem not listed above: 
 R. D. Adamson,  B. Austin,  J. Baker,  G. J. O. Beran,  K. Brandhorst,  
 S. T. Brown,  E. F. C. Byrd,  A. K. Chakraborty,  C.-L. Cheng,  
 Siu Hung Chien,  D. M. Chipman,  D. L. Crittenden,  H. Dachsel,  
 R. J. Doerksen,  A. D. Dutoi,  L. Fusti-Molnar,  W. A. Goddard III,  
 A. Golubeva-Zadorozhnaya,  S. R. Gwaltney,  G. Hawkins,  A. Heyden,  
 S. Hirata,  G. Kedziora,  F. J. Keil,  C. Kelley,  Jihan Kim,  R. A. King,  
 R. Z. Khaliullin,  P. P. Korambath,  W. Kurlancheek,  A. M. Lee,  M. S. Lee,  
 S. V. Levchenko,  Ching Yeh Lin,  D. Liotard,  R. C. Lochan,  I. Lotan,  
 P. E. Maslen,  N. Nair,  D. P. O'Neill,  D. Neuhauser,  E. Neuscamman,  
 C. M. Oana,  R. Olson,  B. Peters,  R. Peverati,  P. A. Pieniazek,  
 Y. M. Rhee,  J. Ritchie,  M. A. Rohrdanz,  E. Rosta,  N. J. Russ,  
 H. F. Schaefer III,  N. E. Schultz,  N. Shenvi,  A. C. Simmonett,  A. Sodt,  
 D. Stuck,  K. S. Thanthiriwatte,  V. Vanovschi,  Tao Wang,  A. Warshel,  
 C. F. Williams,  Q. Wu,  X. Xu,  W. Zhang

 Please cite Q-Chem as follows:
 Y. Shao et al., Mol. Phys. 113, 184-215 (2015)
 DOI: 10.1080/00268976.2014.952696

 Q-Chem 5.3.0 for Intel X86 EM64T Linux

 Parts of Q-Chem use Armadillo 9.800.1 (Horizon Scraper).
 http://arma.sourceforge.net/

 Q-Chem begins on Mon Jul 13 15:39:52 2020  

Host: centos77-c5
0

     Scratch files written to /tmp/29025.centos77-h1/qchem128040//
Processing $rem in /opt/qchem-5.3.0-intel2020u1//config/preferences:
Processing $rem in /home/shihchengli/.qchemrc:

Checking the input file for inconsistencies... 	...done.

--------------------------------------------------------------
User input:
--------------------------------------------------------------
$rem
   JOBTYPE  sp
   EXCHANGE   omegaB97X-D
   BASIS   6-311+G(2df,2pd)
   UNRESTRICTED   True
   max_scf_cycles   250
   geom_opt_max_cycles   1500
   basis2 6-31G*
   scf_algorithm rca_diis
   SYM_IGNORE  TRUE
   print_input   true
   geom_opt_dmax   80
   pop_mulliken false
   XC_GRID 000075000302
$end

$molecule
0 3
N       0.7104006181     1.1074288128     2.5493315222
O       0.4265984375     2.0594781463     1.9663437222
O       1.6778862055     1.0979041819     3.2410923537
N       0.0620036197     -1.1184357316     3.1102745432
O       -0.4013639682     -1.2121840596     4.1637134141
O       -0.5305337826     0.1607977601     2.0695443345
$end
--------------------------------------------------------------
 ----------------------------------------------------------------
             Standard Nuclear Orientation (Angstroms)
    I     Atom           X                Y                Z
 ----------------------------------------------------------------
    1      N       0.7104006181     1.1074288128     2.5493315222
    2      O       0.4265984375     2.0594781463     1.9663437222
    3      O       1.6778862055     1.0979041819     3.2410923537
    4      N       0.0620036197    -1.1184357316     3.1102745432
    5      O      -0.4013639682    -1.2121840596     4.1637134141
    6      O      -0.5305337826     0.1607977601     2.0695443345
 ----------------------------------------------------------------
 Nuclear Repulsion Energy =         229.16085999 hartrees
 There are       24 alpha and       22 beta electrons
 Requested basis set is 6-311+G(2df,2pd)
 There are 48 shells and 204 basis functions

 Total QAlloc Memory Limit   2000 MB
 Mega-Array Size       188 MB
 MEM_STATIC part       192 MB

                       Distance Matrix (Angstroms)
             N (  1)   O (  2)   O (  3)   N (  4)   O (  5)
   O (  2)  1.151875
   O (  3)  1.189391  2.028628
   N (  4)  2.385277  3.397152  2.745970
   O (  5)  3.036915  4.027124  3.242070  1.154657
   O (  6)  1.632858  2.128788  2.669796  1.752329  2.507451
 
 A cutoff of  1.0D-09 yielded   1029 shell pairs
 There are     19217 function pairs (     25201 Cartesian)
 Smallest overlap matrix eigenvalue = 6.04E-04

 Scale SEOQF with 1.000000e-01/1.000000e-01/1.000000e-01

 Standard Electronic Orientation quadrupole field applied
 Nucleus-field energy     =    -0.0000000367 hartrees
 Requested basis set is 6-31G(d)
 There are 24 shells and 84 basis functions
 A cutoff of  1.0D-09 yielded    265 shell pairs
 There are      3525 function pairs (      4053 Cartesian)
 Smallest overlap matrix eigenvalue = 5.00E-03
 Guess from superposition of atomic densities
 Warning:  Energy on first SCF cycle will be non-variational
 SAD guess density has 46.000000 electrons
 Long-range K will be added via erf
 Coulomb attenuation parameter = 0.2 bohr**(-1)
 An unrestricted hybrid HF-DFT SCF calculation will be
 performed using Relaxed Constraint Minimization + Pulay DIIS
 Exchange:     0.2220 Hartree-Fock + 1.0000 wB97X-D + LR-HF
 Correlation:  1.0000 wB97X-D
 Using Euler-Maclaurin-Lebedev (75,302) quadrature formula
 Dispersion:   Grimme D
 SCF converges when DIIS error is below 1.0E-04
 using 6 threads for integral computing
 -------------------------------------------------------
 OpenMP Integral computing Module                
 Release: version 1.0, May 2013, Q-Chem Inc. Pittsburgh 
 -------------------------------------------------------
 using 6 threads for integral computing
 -------------------------------------------------------
 OpenMP Integral computing Module                
 Release: version 1.0, May 2013, Q-Chem Inc. Pittsburgh 
 -------------------------------------------------------
 ---------------------------------------
  Cycle       Energy         DIIS Error
 ---------------------------------------
    1    -410.8726726075      8.77E-02
    2    -409.6050113889      1.91E-02
    3    -409.7088171306      3.88E-03
    4    -409.8537120394      4.25E-03
    5    -409.8588636536      7.72E-04 Done RCA. Switching to DIIS
    6    -409.8666079601      7.24E-04
    7    -409.8672901180      2.25E-04
    8    -409.8675092484      1.12E-04
    9    -409.8676555851      5.39E-05 Convergence criterion met
 ---------------------------------------
 <S^2> = 2.0200
 SCF time:  CPU 15.23 s  wall 2.55 s
 SCF   energy in the small basis set = -409.86765559
 Total energy in the small basis set = -409.86765559
 ----------------------------------------------------
  Cycle       Energy    
 ----------------------------------------------------
    1     -41.7184686961     -4.17E+01
 Long-range K will be added via erf
 Coulomb attenuation parameter = 0.2 bohr**(-1)
 An unrestricted hybrid HF-DFT SCF calculation will be
 performed using Relaxed Constraint Minimization + Pulay DIIS
 Exchange:     0.2220 Hartree-Fock + 1.0000 wB97X-D + LR-HF
 Correlation:  1.0000 wB97X-D
 Using Euler-Maclaurin-Lebedev (75,302) quadrature formula
 Dispersion:   Grimme D
 SCF converges when DIIS error is below 1.0E-05
 Basis2 calculation detected. Using small basis as guess for larger.
 SCFMinFind is unable to tell whether the solution found is close.
 Resetting ReadMinima to 0 and attempting to follow guess.
 SCFMinFind following SCF Guess.
 using 6 threads for integral computing
 -------------------------------------------------------
 OpenMP Integral computing Module                
 Release: version 1.0, May 2013, Q-Chem Inc. Pittsburgh 
 -------------------------------------------------------
 using 6 threads for integral computing
 -------------------------------------------------------
 OpenMP Integral computing Module                
 Release: version 1.0, May 2013, Q-Chem Inc. Pittsburgh 
 -------------------------------------------------------
 ---------------------------------------
  Cycle       Energy         DIIS Error
 ---------------------------------------
    1    -409.9314453845      8.21E-03
    2    -409.9089970589      5.57E-03
    3    -409.9463278183      1.83E-03
    4    -410.0019008748      1.20E-03
    5    -410.0100214135      8.57E-04 Done RCA. Switching to DIIS
    6    -410.0146848412      1.35E-03
    7    -410.0218949691      1.11E-04
    8    -410.0228454113      7.34E-05
    9    -410.0231608132      4.52E-05
   10    -410.0234265863      2.75E-05
   11    -410.0234863486      1.63E-05
   12    -410.0235414411      8.21E-06 Convergence criterion met
 ---------------------------------------
 <S^2> = 2.0235
 SCF time:  CPU 74.68 s  wall 12.48 s
 SCF   energy in the final basis set = -410.02354144
 Total energy in the final basis set = -410.02354144
 
 --------------------------------------------------------------
 
                    Orbital Energies (a.u.)
 --------------------------------------------------------------
 
 Alpha MOs
 -- Occupied --
-19.4070 -19.3952 -19.3624 -19.3463 -14.7603 -14.6011  -1.4528  -1.3704
 -1.2545  -1.1577  -0.8226  -0.7941  -0.7147  -0.7125  -0.6814  -0.6550
 -0.6419  -0.6230  -0.4910  -0.4881  -0.4715  -0.4635  -0.4336  -0.3241
 -- Virtual --
 -0.0633  -0.0258   0.0003   0.1006   0.1212   0.1362   0.1393   0.1770
  0.1861   0.1893   0.2258   0.2427   0.2539   0.2705   0.2806   0.2900
  0.3042   0.3194   0.3332   0.3477   0.3560   0.3588   0.3778   0.3963
  0.4059   0.4341   0.4522   0.4689   0.5068   0.5134   0.7247   0.7497
  0.8092   0.8416   0.8636   0.9256   0.9465   0.9724   0.9904   1.0167
  1.0315   1.0500   1.0529   1.0613   1.0760   1.0848   1.1064   1.1161
  1.1371   1.1497   1.1788   1.1848   1.2051   1.2159   1.2322   1.2531
  1.4066   1.4241   1.4983   1.5244   1.5533   1.5911   1.6075   1.6246
  1.6433   1.6730   1.6778   1.7264   1.7897   1.8586   1.9306   1.9746
  2.0507   2.1193   2.1691   2.2376   2.2827   2.3348   2.3593   2.4593
  2.5123   2.5671   2.6134   2.7038   3.5070   3.5346   3.5610   3.5729
  3.6596   3.6761   3.7351   3.7488   3.7746   3.7993   3.8256   3.8423
  3.9168   3.9934   4.0046   4.0359   4.1200   4.3968   4.4772   4.5015
  4.5439   4.5971   4.6405   4.6519   4.6882   4.6899   4.7180   4.7612
  4.8737   4.8969   4.9787   4.9904   5.0161   5.0222   5.0330   5.0372
  5.0442   5.0628   5.0985   5.1200   5.1295   5.1322   5.1476   5.1711
  5.1884   5.2182   5.2205   5.2718   5.2792   5.3880   5.4003   5.4612
  5.5095   5.5269   5.5647   5.6392   5.7645   5.7984   5.8296   5.9144
  6.0955   6.4538   6.6181   6.7113   6.7239   6.7407   6.7461   6.7795
  6.7836   6.7942   6.8057   6.8329   6.9116   6.9588   6.9872   7.1271
  7.1667   7.1935   7.2084   7.2188   7.2254   7.2852   7.4693   7.5037
  7.5526   7.6674   7.7192   7.8329   7.8482   8.1547  35.9821  36.2246
 49.9788  50.1905  50.2174  50.2945
 
 Beta MOs
 -- Occupied --
-19.3884 -19.3798 -19.3635 -19.3444 -14.7603 -14.5848  -1.4512  -1.3372
 -1.2530  -1.1055  -0.7891  -0.7585  -0.7118  -0.7027  -0.6732  -0.6067
 -0.5801  -0.5633  -0.4746  -0.4697  -0.4545  -0.4359
 -- Virtual --
 -0.1377  -0.0475  -0.0250   0.0112   0.0554   0.1034   0.1245   0.1385
  0.1443   0.1780   0.1886   0.1950   0.2273   0.2463   0.2555   0.2718
  0.2829   0.2927   0.3098   0.3224   0.3346   0.3496   0.3573   0.3603
  0.3826   0.4027   0.4110   0.4368   0.4563   0.4738   0.5102   0.5294
  0.7309   0.7633   0.8250   0.8558   0.8787   0.9328   0.9502   0.9750
  0.9953   1.0241   1.0426   1.0619   1.0656   1.0723   1.0849   1.0937
  1.1192   1.1294   1.1417   1.1548   1.1931   1.2025   1.2238   1.2324
  1.2404   1.2717   1.4210   1.4433   1.5034   1.5277   1.5673   1.5993
  1.6127   1.6408   1.6646   1.6945   1.6953   1.7388   1.7948   1.8689
  1.9449   1.9862   2.0717   2.1339   2.1754   2.2482   2.2966   2.3412
  2.3738   2.4780   2.5232   2.5709   2.6168   2.7087   3.5123   3.5656
  3.5871   3.5949   3.6690   3.6940   3.7414   3.7606   3.8001   3.8365
  3.8394   3.8770   3.9285   3.9992   4.0304   4.0564   4.1283   4.3987
  4.4792   4.5063   4.5519   4.6033   4.6685   4.6699   4.7016   4.7281
  4.7406   4.8055   4.9228   4.9384   4.9955   5.0127   5.0310   5.0408
  5.0496   5.0563   5.0667   5.0766   5.1164   5.1296   5.1434   5.1670
  5.1724   5.1864   5.2077   5.2453   5.2579   5.2854   5.3039   5.4025
  5.4110   5.4812   5.5292   5.5497   5.5831   5.6657   5.7662   5.8035
  5.8564   5.9534   6.1087   6.4611   6.6218   6.7437   6.7696   6.7790
  6.7831   6.7926   6.7990   6.8095   6.8131   6.8403   6.9610   6.9811
  7.0077   7.1363   7.1908   7.2068   7.2172   7.2379   7.2602   7.3293
  7.4871   7.5188   7.5651   7.6675   7.7423   7.8467   7.8721   8.1563
 36.0017  36.2246  50.0002  50.2045  50.2169  50.2960
 --------------------------------------------------------------
 
 -----------------------------------------------------------------
                    Cartesian Multipole Moments
 -----------------------------------------------------------------
    Charge (ESU x 10^10)
                 0.0000
    Dipole Moment (Debye)
         X      -0.0099      Y      -0.5042      Z       0.1358
       Tot       0.5223
    Quadrupole Moments (Debye-Ang)
        XX     -32.4441     XY      -0.6775     YY     -33.0241
        XZ      -1.0152     YZ      -0.4740     ZZ     -31.9421
    Octopole Moments (Debye-Ang^2)
       XXX     -32.8022    XXY     -12.1074    XYY     -10.6909
       YYY     -38.6785    XXZ     -94.3358    XYZ      -3.2376
       YYZ     -90.6287    XZZ     -15.0243    YZZ      -9.5150
       ZZZ    -276.1563
    Hexadecapole Moments (Debye-Ang^3)
      XXXX    -150.9290   XXXY     -60.7556   XXYY     -78.9222
      XYYY     -64.4379   YYYY    -330.0863   XXXZ     -95.6938
      XXYZ     -16.4130   XYYZ     -29.1462   YYYZ     -46.3619
      XXZZ    -319.5089   XYZZ     -33.2298   YYZZ    -325.8911
      XZZZ    -104.2739   YZZZ     -22.2389   ZZZZ   -1712.6215
 -----------------------------------------------------------------
Archival summary:
1\1\centos77-c5\SP\ProcedureUnspecified\BasisUnspecified\42(3)\shihchen\MonJul1315:40:102020MonJul1315:40:102020\0\\#,ProcedureUnspecified,BasisUnspecified,\\0,3\N\O,1,1.15188\O,1,1.18939,2,120.093\O,1,1.63286,2,98.2334,3,179.352,0\N,4,1.75233,1,89.5261,2,-177.185,0\O,5,1.15466,4,117.738,1,95.6949,0\\\@

 Total job time:  17.36s(wall), 94.13s(cpu) 
 Mon Jul 13 15:40:10 2020

        *************************************************************
        *                                                           *
        *  Thank you very much for using Q-Chem.  Have a nice day.  *
        *                                                           *
        *************************************************************


