                  Welcome to Q-Chem
     A Quantum Leap Into The Future Of Chemistry


 Q-Chem 5.3 (devel), Q-Chem, Inc., Pleasanton, CA (2020)

 Yihan Shao,  Zhengting Gan,  E. Epifanovsky,  A. T. B. Gilbert,  M. Wormit,  
 J. Kussmann,  A. W. Lange,  A. Behn,  Jia Deng,  Xintian Feng,  D. Ghosh,  
 M. Goldey,  P. R. Horn,  L. D. Jacobson,  I. Kaliman,  T. Kus,  A. Landau,  
 Jie Liu,  E. I. Proynov,  R. M. Richard,  R. P. Steele,  E. J. Sundstrom,  
 H. L. Woodcock III,  P. M. Zimmerman,  D. Zuev,  B. Alam,  B. Albrecht,  
 E. Alguire,  S. A. Baeppler,  D. Barton,  Z. Benda,  Y. A. Bernard,  
 E. J. Berquist,  K. B. Bravaya,  H. Burton,  K. Carter-Fenk,  D. Casanova,  
 Chun-Min Chang,  Yunqing Chen,  A. Chien,  K. D. Closser,  M. P. Coons,  
 S. Coriani,  S. Dasgupta,  A. L. Dempwolff,  M. Diedenhofen,  Hainam Do,  
 R. G. Edgar,  Po-Tung Fang,  S. Faraji,  S. Fatehi,  Qingguo Feng,  
 J. Fosso-Tande,  J. Gayvert,  Qinghui Ge,  A. Ghysels,  G. Gidofalvi,  
 J. Gomes,  J. Gonthier,  A. Gunina,  D. Hait,  M. W. D. Hanson-Heine,  
 P. H. P. Harbach,  A. W. Hauser,  M. F. Herbst,  J. E. Herr,  
 E. G. Hohenstein,  Z. C. Holden,  Kerwin Hui,  B. C. Huynh,  T.-C. Jagau,  
 Hyunjun Ji,  B. Kaduk,  K. Khistyaev,  Jaehoon Kim,  P. Klunzinger,  K. Koh,  
 D. Kosenkov,  L. Koulias,  T. Kowalczyk,  C. M. Krauter,  A. Kunitsa,  
 Ka Un Lao,  A. Laurent,  K. V. Lawler,  Joonho Lee,  D. Lefrancois,  
 S. Lehtola,  D. S. Levine,  Yi-Pei Li,  You-Sheng Lin,  Fenglai Liu,  
 Kuan-Yu Liu,  E. Livshits,  M. Loipersberger,  A. Luenser,  P. Manohar,  
 E. Mansoor,  S. F. Manzer,  Shan-Ping Mao,  Yuezhi Mao,  N. Mardirossian,  
 A. V. Marenich,  T. Markovich,  L. A. Martinez-Martinez,  S. A. Maurer,  
 N. J. Mayhall,  S. C. McKenzie,  J.-M. Mewes,  P. Morgante,  A. F. Morrison,  
 J. W. Mullinax,  K. Nanda,  T. S. Nguyen-Beck,  R. Olivares-Amaya,  
 K. J. Oosterbaan,  J. A. Parkhill,  S. K. Paul,  F. Pavosevic,  Zheng Pei,  
 T. M. Perrine,  F. Plasser,  P. Pokhilko,  S. Prager,  A. Prociuk,  
 E. Ramos,  B. Rana,  D. R. Rehn,  F. Rob,  M. Scheurer,  M. Schneider,  
 N. Sergueev,  S. M. Sharada,  S. Sharma,  D. W. Small,  T. Stauch,  
 C. J. Stein,  T. Stein,  Yu-Chuan Su,  S. P. Veccham,  Zhen Tao,  
 A. J. W. Thom,  A. Tkatchenko,  T. Tsuchimochi,  N. M. Tubman,  L. Vogt,  
 M. L. Vidal,  O. Vydrov,  M. A. Watson,  J. Wenzel,  M. de Wergifosse,  
 T. A. Wesolowski,  A. White,  J. Witte,  A. Yamada,  Jun Yang,  K. Yao,  
 S. Yeganeh,  S. R. Yost,  Zhi-Qiang You,  A. Zech,  Igor Ying Zhang,  
 Xing Zhang,  Yan Zhao,  Ying Zhu,  B. R. Brooks,  G. K. L. Chan,  
 C. J. Cramer,  M. S. Gordon,  W. J. Hehre,  A. Klamt,  M. W. Schmidt,  
 C. D. Sherrill,  D. G. Truhlar,  A. Aspuru-Guzik,  R. Baer,  A. T. Bell,  
 N. A. Besley,  Jeng-Da Chai,  A. E. DePrince, III,  R. A. DiStasio Jr.,  
 A. Dreuw,  B. D. Dunietz,  T. R. Furlani,  Chao-Ping Hsu,  Yousung Jung,  
 Jing Kong,  D. S. Lambrecht,  WanZhen Liang,  C. Ochsenfeld,  
 V. A. Rassolov,  L. V. Slipchenko,  J. E. Subotnik,  T. Van Voorhis,  
 J. M. Herbert,  A. I. Krylov,  P. M. W. Gill,  M. Head-Gordon

 Contributors to earlier versions of Q-Chem not listed above: 
 R. D. Adamson,  B. Austin,  J. Baker,  G. J. O. Beran,  K. Brandhorst,  
 S. T. Brown,  E. F. C. Byrd,  A. K. Chakraborty,  C.-L. Cheng,  
 Siu Hung Chien,  D. M. Chipman,  D. L. Crittenden,  H. Dachsel,  
 R. J. Doerksen,  A. D. Dutoi,  L. Fusti-Molnar,  W. A. Goddard III,  
 A. Golubeva-Zadorozhnaya,  S. R. Gwaltney,  G. Hawkins,  A. Heyden,  
 S. Hirata,  G. Kedziora,  F. J. Keil,  C. Kelley,  Jihan Kim,  R. A. King,  
 R. Z. Khaliullin,  P. P. Korambath,  W. Kurlancheek,  A. M. Lee,  M. S. Lee,  
 S. V. Levchenko,  Ching Yeh Lin,  D. Liotard,  R. C. Lochan,  I. Lotan,  
 P. E. Maslen,  N. Nair,  D. P. O'Neill,  D. Neuhauser,  E. Neuscamman,  
 C. M. Oana,  R. Olson,  B. Peters,  R. Peverati,  P. A. Pieniazek,  
 Y. M. Rhee,  J. Ritchie,  M. A. Rohrdanz,  E. Rosta,  N. J. Russ,  
 H. F. Schaefer III,  N. E. Schultz,  N. Shenvi,  A. C. Simmonett,  A. Sodt,  
 D. Stuck,  K. S. Thanthiriwatte,  V. Vanovschi,  Tao Wang,  A. Warshel,  
 C. F. Williams,  Q. Wu,  X. Xu,  W. Zhang

 Please cite Q-Chem as follows:
 Y. Shao et al., Mol. Phys. 113, 184-215 (2015)
 DOI: 10.1080/00268976.2014.952696

 Q-Chem 5.3.0 for Intel X86 EM64T Linux

 Parts of Q-Chem use Armadillo 9.800.1 (Horizon Scraper).
 http://arma.sourceforge.net/

 Q-Chem begins on Mon Jul 13 15:39:36 2020  

Host: centos77-c5
0

     Scratch files written to /tmp/29025.centos77-h1/qchem123273//
Processing $rem in /opt/qchem-5.3.0-intel2020u1//config/preferences:
Processing $rem in /home/shihchengli/.qchemrc:

Checking the input file for inconsistencies... 	...done.

--------------------------------------------------------------
User input:
--------------------------------------------------------------
$rem
   JOBTYPE  sp
   EXCHANGE   omegaB97X-D
   BASIS   6-311+G(2df,2pd)
   UNRESTRICTED   True
   max_scf_cycles   250
   geom_opt_max_cycles   1500
   basis2 6-31G*
   scf_algorithm rca_diis
   SYM_IGNORE  TRUE
   print_input   true
   geom_opt_dmax   80
   pop_mulliken false
   XC_GRID 000075000302
$end

$molecule
0 3
N       0.7079968192     1.1263199380     2.5371293893
O       0.4216495498     2.0810734693     1.9489540343
O       1.6698282630     1.0848131944     3.2341027982
N       0.0555627384     -1.1285601946     3.1159174845
O       -0.4140564322     -1.2335497948     4.1676792157
O       -0.4959898082     0.1648924976     2.0965169680
$end
--------------------------------------------------------------
 ----------------------------------------------------------------
             Standard Nuclear Orientation (Angstroms)
    I     Atom           X                Y                Z
 ----------------------------------------------------------------
    1      N       0.7079968192     1.1263199380     2.5371293893
    2      O       0.4216495498     2.0810734693     1.9489540343
    3      O       1.6698282630     1.0848131944     3.2341027982
    4      N       0.0555627384    -1.1285601946     3.1159174845
    5      O      -0.4140564322    -1.2335497948     4.1676792157
    6      O      -0.4959898082     0.1648924976     2.0965169680
 ----------------------------------------------------------------
 Nuclear Repulsion Energy =         229.13847963 hartrees
 There are       24 alpha and       22 beta electrons
 Requested basis set is 6-311+G(2df,2pd)
 There are 48 shells and 204 basis functions

 Total QAlloc Memory Limit   2000 MB
 Mega-Array Size       188 MB
 MEM_STATIC part       192 MB

                       Distance Matrix (Angstroms)
             N (  1)   O (  2)   O (  3)   N (  4)   O (  5)
   O (  2)  1.157367
   O (  3)  1.188535  2.049900
   N (  4)  2.417675  3.434759  2.742051
   O (  5)  3.080046  4.075276  3.254066  1.156619
   O (  6)  1.602519  2.129692  2.613642  1.736781  2.500413
 
 A cutoff of  1.0D-09 yielded   1030 shell pairs
 There are     19253 function pairs (     25257 Cartesian)
 Smallest overlap matrix eigenvalue = 6.19E-04

 Scale SEOQF with 1.000000e-01/1.000000e-01/1.000000e-01

 Standard Electronic Orientation quadrupole field applied
 Nucleus-field energy     =    -0.0000000366 hartrees
 Requested basis set is 6-31G(d)
 There are 24 shells and 84 basis functions
 A cutoff of  1.0D-09 yielded    265 shell pairs
 There are      3525 function pairs (      4053 Cartesian)
 Smallest overlap matrix eigenvalue = 5.12E-03
 Guess from superposition of atomic densities
 Warning:  Energy on first SCF cycle will be non-variational
 SAD guess density has 46.000000 electrons
 Long-range K will be added via erf
 Coulomb attenuation parameter = 0.2 bohr**(-1)
 An unrestricted hybrid HF-DFT SCF calculation will be
 performed using Relaxed Constraint Minimization + Pulay DIIS
 Exchange:     0.2220 Hartree-Fock + 1.0000 wB97X-D + LR-HF
 Correlation:  1.0000 wB97X-D
 Using Euler-Maclaurin-Lebedev (75,302) quadrature formula
 Dispersion:   Grimme D
 SCF converges when DIIS error is below 1.0E-04
 using 6 threads for integral computing
 -------------------------------------------------------
 OpenMP Integral computing Module                
 Release: version 1.0, May 2013, Q-Chem Inc. Pittsburgh 
 -------------------------------------------------------
 using 6 threads for integral computing
 -------------------------------------------------------
 OpenMP Integral computing Module                
 Release: version 1.0, May 2013, Q-Chem Inc. Pittsburgh 
 -------------------------------------------------------
 ---------------------------------------
  Cycle       Energy         DIIS Error
 ---------------------------------------
    1    -410.8823962647      8.75E-02
    2    -409.6216827613      1.91E-02
    3    -409.7241606196      3.97E-03
    4    -409.8673925797      4.37E-03
    5    -409.8728619899      7.74E-04 Done RCA. Switching to DIIS
    6    -409.8808840746      7.61E-04
    7    -409.8815750063      2.07E-04
    8    -409.8817604044      1.09E-04
    9    -409.8818827299      5.11E-05 Convergence criterion met
 ---------------------------------------
 <S^2> = 2.0188
 SCF time:  CPU 15.18 s  wall 2.54 s
 SCF   energy in the small basis set = -409.88188273
 Total energy in the small basis set = -409.88188273
 ----------------------------------------------------
  Cycle       Energy    
 ----------------------------------------------------
    1     -41.7180818103     -4.17E+01
 Long-range K will be added via erf
 Coulomb attenuation parameter = 0.2 bohr**(-1)
 An unrestricted hybrid HF-DFT SCF calculation will be
 performed using Relaxed Constraint Minimization + Pulay DIIS
 Exchange:     0.2220 Hartree-Fock + 1.0000 wB97X-D + LR-HF
 Correlation:  1.0000 wB97X-D
 Using Euler-Maclaurin-Lebedev (75,302) quadrature formula
 Dispersion:   Grimme D
 SCF converges when DIIS error is below 1.0E-05
 Basis2 calculation detected. Using small basis as guess for larger.
 SCFMinFind is unable to tell whether the solution found is close.
 Resetting ReadMinima to 0 and attempting to follow guess.
 SCFMinFind following SCF Guess.
 using 6 threads for integral computing
 -------------------------------------------------------
 OpenMP Integral computing Module                
 Release: version 1.0, May 2013, Q-Chem Inc. Pittsburgh 
 -------------------------------------------------------
 using 6 threads for integral computing
 -------------------------------------------------------
 OpenMP Integral computing Module                
 Release: version 1.0, May 2013, Q-Chem Inc. Pittsburgh 
 -------------------------------------------------------
 ---------------------------------------
  Cycle       Energy         DIIS Error
 ---------------------------------------
    1    -409.9606264577      8.11E-03
    2    -409.9572372129      4.84E-03
    3    -409.9854490471      1.44E-03
    4    -410.0261802888      1.22E-03
    5    -410.0302462935      2.83E-04 Done RCA. Switching to DIIS
    6    -410.0362338498      3.95E-04
    7    -410.0371530902      8.25E-05
    8    -410.0373821348      3.39E-05
    9    -410.0374841365      2.18E-05
   10    -410.0375107076      1.16E-05
   11    -410.0375259002      6.56E-06 Convergence criterion met
 ---------------------------------------
 <S^2> = 2.0214
 SCF time:  CPU 68.47 s  wall 11.44 s
 SCF   energy in the final basis set = -410.03752590
 Total energy in the final basis set = -410.03752590
 
 --------------------------------------------------------------
 
                    Orbital Energies (a.u.)
 --------------------------------------------------------------
 
 Alpha MOs
 -- Occupied --
-19.4081 -19.3963 -19.3613 -19.3466 -14.7623 -14.6043  -1.4494  -1.3705
 -1.2558  -1.1636  -0.8282  -0.7917  -0.7150  -0.7121  -0.6821  -0.6552
 -0.6421  -0.6248  -0.4919  -0.4908  -0.4695  -0.4637  -0.4349  -0.3268
 -- Virtual --
 -0.0441  -0.0255   0.0017   0.1006   0.1208   0.1364   0.1390   0.1761
  0.1849   0.1882   0.2263   0.2426   0.2530   0.2703   0.2796   0.2897
  0.3043   0.3205   0.3349   0.3484   0.3555   0.3580   0.3770   0.3953
  0.4048   0.4335   0.4507   0.4643   0.5058   0.5118   0.7265   0.7457
  0.8082   0.8395   0.8619   0.9211   0.9435   0.9690   0.9869   1.0184
  1.0313   1.0510   1.0524   1.0672   1.0762   1.0845   1.1114   1.1139
  1.1369   1.1505   1.1784   1.1820   1.2073   1.2177   1.2364   1.2637
  1.4183   1.4228   1.5060   1.5208   1.5543   1.5866   1.6037   1.6234
  1.6412   1.6714   1.6837   1.7275   1.8117   1.8645   1.9220   1.9641
  2.0450   2.1278   2.1693   2.2632   2.2944   2.3265   2.3607   2.4545
  2.5097   2.5737   2.6063   2.7054   3.5082   3.5374   3.5604   3.5720
  3.6584   3.6757   3.7257   3.7366   3.7718   3.7998   3.8261   3.8416
  3.9215   3.9949   4.0031   4.0274   4.1161   4.3992   4.4808   4.4995
  4.5279   4.5928   4.6364   4.6488   4.6873   4.6962   4.7152   4.7587
  4.8733   4.8938   4.9815   4.9934   5.0166   5.0227   5.0342   5.0384
  5.0439   5.0673   5.1006   5.1188   5.1311   5.1370   5.1488   5.1697
  5.1875   5.2234   5.2285   5.2781   5.2970   5.3964   5.4205   5.4587
  5.5076   5.5285   5.5838   5.6382   5.7555   5.7991   5.8880   5.9736
  6.0701   6.4394   6.6232   6.7047   6.7158   6.7393   6.7403   6.7770
  6.7819   6.8039   6.8062   6.8368   6.9260   6.9730   6.9975   7.1245
  7.1641   7.1848   7.2057   7.2190   7.2230   7.3202   7.4953   7.5182
  7.5599   7.6593   7.7200   7.8377   7.8545   8.1432  35.9713  36.2032
 49.9749  50.1864  50.2223  50.2813
 
 Beta MOs
 -- Occupied --
-19.3905 -19.3804 -19.3621 -19.3447 -14.7621 -14.5879  -1.4474  -1.3365
 -1.2539  -1.1148  -0.7913  -0.7579  -0.7111  -0.7026  -0.6728  -0.6070
 -0.5808  -0.5631  -0.4750  -0.4713  -0.4562  -0.4386
 -- Virtual --
 -0.1395  -0.0324  -0.0244   0.0123   0.0570   0.1036   0.1241   0.1388
  0.1440   0.1771   0.1875   0.1939   0.2278   0.2462   0.2548   0.2717
  0.2822   0.2922   0.3102   0.3233   0.3363   0.3503   0.3571   0.3593
  0.3812   0.4017   0.4108   0.4359   0.4546   0.4701   0.5111   0.5267
  0.7334   0.7585   0.8238   0.8542   0.8768   0.9285   0.9464   0.9724
  0.9927   1.0254   1.0429   1.0628   1.0663   1.0762   1.0867   1.0938
  1.1206   1.1299   1.1424   1.1553   1.1935   1.2009   1.2247   1.2316
  1.2460   1.2806   1.4320   1.4417   1.5124   1.5243   1.5657   1.5962
  1.6087   1.6404   1.6621   1.6906   1.7052   1.7387   1.8172   1.8739
  1.9304   1.9797   2.0645   2.1448   2.1751   2.2763   2.3087   2.3309
  2.3763   2.4710   2.5215   2.5774   2.6102   2.7099   3.5156   3.5684
  3.5852   3.5949   3.6669   3.6930   3.7363   3.7465   3.7971   3.8293
  3.8503   3.8758   3.9328   4.0002   4.0281   4.0490   4.1261   4.4011
  4.4825   4.5042   4.5361   4.5995   4.6643   4.6726   4.7004   4.7331
  4.7383   4.8032   4.9127   4.9423   4.9986   5.0136   5.0337   5.0422
  5.0480   5.0559   5.0668   5.0803   5.1175   5.1339   5.1416   5.1652
  5.1761   5.1886   5.2084   5.2499   5.2635   5.2903   5.3218   5.4082
  5.4306   5.4761   5.5303   5.5533   5.5990   5.6654   5.7578   5.8049
  5.9282   5.9965   6.0852   6.4475   6.6271   6.7365   6.7603   6.7790
  6.7822   6.7936   6.7982   6.8085   6.8161   6.8452   6.9741   6.9928
  7.0167   7.1308   7.1923   7.2029   7.2174   7.2323   7.2553   7.3628
  7.5113   7.5402   7.5687   7.6614   7.7434   7.8483   7.8797   8.1445
 35.9910  36.2034  49.9949  50.2009  50.2218  50.2830
 --------------------------------------------------------------
 
 -----------------------------------------------------------------
                    Cartesian Multipole Moments
 -----------------------------------------------------------------
    Charge (ESU x 10^10)
                 0.0000
    Dipole Moment (Debye)
         X      -0.0435      Y      -0.5629      Z       0.1401
       Tot       0.5817
    Quadrupole Moments (Debye-Ang)
        XX     -32.5198     XY      -0.7238     YY     -33.0864
        XZ      -1.1346     YZ      -0.5872     ZZ     -31.9028
    Octopole Moments (Debye-Ang^2)
       XXX     -32.9102    XXY     -12.2175    XYY     -10.8263
       YYY     -39.2367    XXZ     -94.5000    XYZ      -3.3612
       YYZ     -90.7212    XZZ     -15.4081    YZZ      -9.7660
       ZZZ    -275.9021
    Hexadecapole Moments (Debye-Ang^3)
      XXXX    -149.2437   XXXY     -61.3357   XXYY     -79.9328
      XYYY     -65.0364   YYYY    -336.5714   XXXZ     -94.6543
      XXYZ     -16.0425   XYYZ     -29.0972   YYYZ     -45.5800
      XXZZ    -319.5813   XYZZ     -33.6529   YYZZ    -327.1365
      XZZZ    -104.1042   YZZZ     -20.7855   ZZZZ   -1711.2713
 -----------------------------------------------------------------
Archival summary:
1\1\centos77-c5\SP\ProcedureUnspecified\BasisUnspecified\42(3)\shihchen\MonJul1315:39:522020MonJul1315:39:522020\0\\#,ProcedureUnspecified,BasisUnspecified,\\0,3\N\O,1,1.15737\O,1,1.18853,2,121.806\O,1,1.60252,2,99.7474,3,179.368,0\N,4,1.73678,1,92.6841,2,-177.185,0\O,5,1.15662,4,118.19,1,95.6949,0\\\@

 Total job time:  16.28s(wall), 87.65s(cpu) 
 Mon Jul 13 15:39:52 2020

        *************************************************************
        *                                                           *
        *  Thank you very much for using Q-Chem.  Have a nice day.  *
        *                                                           *
        *************************************************************


