                  Welcome to Q-Chem
     A Quantum Leap Into The Future Of Chemistry


 Q-Chem 5.3 (devel), Q-Chem, Inc., Pleasanton, CA (2020)

 Yihan Shao,  Zhengting Gan,  E. Epifanovsky,  A. T. B. Gilbert,  M. Wormit,  
 J. Kussmann,  A. W. Lange,  A. Behn,  Jia Deng,  Xintian Feng,  D. Ghosh,  
 M. Goldey,  P. R. Horn,  L. D. Jacobson,  I. Kaliman,  T. Kus,  A. Landau,  
 Jie Liu,  E. I. Proynov,  R. M. Richard,  R. P. Steele,  E. J. Sundstrom,  
 H. L. Woodcock III,  P. M. Zimmerman,  D. Zuev,  B. Alam,  B. Albrecht,  
 E. Alguire,  S. A. Baeppler,  D. Barton,  Z. Benda,  Y. A. Bernard,  
 E. J. Berquist,  K. B. Bravaya,  H. Burton,  K. Carter-Fenk,  D. Casanova,  
 Chun-Min Chang,  Yunqing Chen,  A. Chien,  K. D. Closser,  M. P. Coons,  
 S. Coriani,  S. Dasgupta,  A. L. Dempwolff,  M. Diedenhofen,  Hainam Do,  
 R. G. Edgar,  Po-Tung Fang,  S. Faraji,  S. Fatehi,  Qingguo Feng,  
 J. Fosso-Tande,  J. Gayvert,  Qinghui Ge,  A. Ghysels,  G. Gidofalvi,  
 J. Gomes,  J. Gonthier,  A. Gunina,  D. Hait,  M. W. D. Hanson-Heine,  
 P. H. P. Harbach,  A. W. Hauser,  M. F. Herbst,  J. E. Herr,  
 E. G. Hohenstein,  Z. C. Holden,  Kerwin Hui,  B. C. Huynh,  T.-C. Jagau,  
 Hyunjun Ji,  B. Kaduk,  K. Khistyaev,  Jaehoon Kim,  P. Klunzinger,  K. Koh,  
 D. Kosenkov,  L. Koulias,  T. Kowalczyk,  C. M. Krauter,  A. Kunitsa,  
 Ka Un Lao,  A. Laurent,  K. V. Lawler,  Joonho Lee,  D. Lefrancois,  
 S. Lehtola,  D. S. Levine,  Yi-Pei Li,  You-Sheng Lin,  Fenglai Liu,  
 Kuan-Yu Liu,  E. Livshits,  M. Loipersberger,  A. Luenser,  P. Manohar,  
 E. Mansoor,  S. F. Manzer,  Shan-Ping Mao,  Yuezhi Mao,  N. Mardirossian,  
 A. V. Marenich,  T. Markovich,  L. A. Martinez-Martinez,  S. A. Maurer,  
 N. J. Mayhall,  S. C. McKenzie,  J.-M. Mewes,  P. Morgante,  A. F. Morrison,  
 J. W. Mullinax,  K. Nanda,  T. S. Nguyen-Beck,  R. Olivares-Amaya,  
 K. J. Oosterbaan,  J. A. Parkhill,  S. K. Paul,  F. Pavosevic,  Zheng Pei,  
 T. M. Perrine,  F. Plasser,  P. Pokhilko,  S. Prager,  A. Prociuk,  
 E. Ramos,  B. Rana,  D. R. Rehn,  F. Rob,  M. Scheurer,  M. Schneider,  
 N. Sergueev,  S. M. Sharada,  S. Sharma,  D. W. Small,  T. Stauch,  
 C. J. Stein,  T. Stein,  Yu-Chuan Su,  S. P. Veccham,  Zhen Tao,  
 A. J. W. Thom,  A. Tkatchenko,  T. Tsuchimochi,  N. M. Tubman,  L. Vogt,  
 M. L. Vidal,  O. Vydrov,  M. A. Watson,  J. Wenzel,  M. de Wergifosse,  
 T. A. Wesolowski,  A. White,  J. Witte,  A. Yamada,  Jun Yang,  K. Yao,  
 S. Yeganeh,  S. R. Yost,  Zhi-Qiang You,  A. Zech,  Igor Ying Zhang,  
 Xing Zhang,  Yan Zhao,  Ying Zhu,  B. R. Brooks,  G. K. L. Chan,  
 C. J. Cramer,  M. S. Gordon,  W. J. Hehre,  A. Klamt,  M. W. Schmidt,  
 C. D. Sherrill,  D. G. Truhlar,  A. Aspuru-Guzik,  R. Baer,  A. T. Bell,  
 N. A. Besley,  Jeng-Da Chai,  A. E. DePrince, III,  R. A. DiStasio Jr.,  
 A. Dreuw,  B. D. Dunietz,  T. R. Furlani,  Chao-Ping Hsu,  Yousung Jung,  
 Jing Kong,  D. S. Lambrecht,  WanZhen Liang,  C. Ochsenfeld,  
 V. A. Rassolov,  L. V. Slipchenko,  J. E. Subotnik,  T. Van Voorhis,  
 J. M. Herbert,  A. I. Krylov,  P. M. W. Gill,  M. Head-Gordon

 Contributors to earlier versions of Q-Chem not listed above: 
 R. D. Adamson,  B. Austin,  J. Baker,  G. J. O. Beran,  K. Brandhorst,  
 S. T. Brown,  E. F. C. Byrd,  A. K. Chakraborty,  C.-L. Cheng,  
 Siu Hung Chien,  D. M. Chipman,  D. L. Crittenden,  H. Dachsel,  
 R. J. Doerksen,  A. D. Dutoi,  L. Fusti-Molnar,  W. A. Goddard III,  
 A. Golubeva-Zadorozhnaya,  S. R. Gwaltney,  G. Hawkins,  A. Heyden,  
 S. Hirata,  G. Kedziora,  F. J. Keil,  C. Kelley,  Jihan Kim,  R. A. King,  
 R. Z. Khaliullin,  P. P. Korambath,  W. Kurlancheek,  A. M. Lee,  M. S. Lee,  
 S. V. Levchenko,  Ching Yeh Lin,  D. Liotard,  R. C. Lochan,  I. Lotan,  
 P. E. Maslen,  N. Nair,  D. P. O'Neill,  D. Neuhauser,  E. Neuscamman,  
 C. M. Oana,  R. Olson,  B. Peters,  R. Peverati,  P. A. Pieniazek,  
 Y. M. Rhee,  J. Ritchie,  M. A. Rohrdanz,  E. Rosta,  N. J. Russ,  
 H. F. Schaefer III,  N. E. Schultz,  N. Shenvi,  A. C. Simmonett,  A. Sodt,  
 D. Stuck,  K. S. Thanthiriwatte,  V. Vanovschi,  Tao Wang,  A. Warshel,  
 C. F. Williams,  Q. Wu,  X. Xu,  W. Zhang

 Please cite Q-Chem as follows:
 Y. Shao et al., Mol. Phys. 113, 184-215 (2015)
 DOI: 10.1080/00268976.2014.952696

 Q-Chem 5.3.0 for Intel X86 EM64T Linux

 Parts of Q-Chem use Armadillo 9.800.1 (Horizon Scraper).
 http://arma.sourceforge.net/

 Q-Chem begins on Mon Jul 13 15:31:29 2020  

Host: centos77-c5
0

     Scratch files written to /tmp/29025.centos77-h1/qchem109769//
Processing $rem in /opt/qchem-5.3.0-intel2020u1//config/preferences:
Processing $rem in /home/shihchengli/.qchemrc:

Checking the input file for inconsistencies... 	...done.

--------------------------------------------------------------
User input:
--------------------------------------------------------------
$rem
   JOBTYPE  sp
   EXCHANGE   omegaB97X-D
   BASIS   6-311+G(2df,2pd)
   UNRESTRICTED   True
   max_scf_cycles   250
   geom_opt_max_cycles   1500
   basis2 6-31G*
   scf_algorithm rca_diis
   SYM_IGNORE  TRUE
   print_input   true
   geom_opt_dmax   80
   pop_mulliken false
   XC_GRID 000075000302
$end

$molecule
0 3
N       0.6992506396     1.2785886799     2.4399736765
O       0.5309596028     2.2270488258     1.7599107819
O       1.5268860785     1.0147827431     3.2368603301
N       -0.1166387032     -1.0249779445     3.2165259066
O       -0.3439480401     -1.5889240350     4.2178068611
O       -0.3515184476     0.1884708405     2.2292223338
$end
--------------------------------------------------------------
 ----------------------------------------------------------------
             Standard Nuclear Orientation (Angstroms)
    I     Atom           X                Y                Z
 ----------------------------------------------------------------
    1      N       0.6992506396     1.2785886799     2.4399736765
    2      O       0.5309596028     2.2270488258     1.7599107819
    3      O       1.5268860785     1.0147827431     3.2368603301
    4      N      -0.1166387032    -1.0249779445     3.2165259066
    5      O      -0.3439480401    -1.5889240350     4.2178068611
    6      O      -0.3515184476     0.1884708405     2.2292223338
 ----------------------------------------------------------------
 Nuclear Repulsion Energy =         227.25731140 hartrees
 There are       24 alpha and       22 beta electrons
 Requested basis set is 6-311+G(2df,2pd)
 There are 48 shells and 204 basis functions

 Total QAlloc Memory Limit   2000 MB
 Mega-Array Size       188 MB
 MEM_STATIC part       192 MB

                       Distance Matrix (Angstroms)
             N (  1)   O (  2)   O (  3)   N (  4)   O (  5)
   O (  2)  1.179145
   O (  3)  1.178814  2.154725
   N (  4)  2.564201  3.621711  2.619582
   O (  5)  3.531513  4.622593  3.352844  1.171439
   O (  6)  1.528689  2.270423  2.286160  1.581896  2.667144
 
 A cutoff of  1.0D-09 yielded   1016 shell pairs
 There are     18923 function pairs (     24813 Cartesian)
 Smallest overlap matrix eigenvalue = 6.51E-04

 Scale SEOQF with 1.000000e-01/1.000000e-01/1.000000e-01

 Standard Electronic Orientation quadrupole field applied
 Nucleus-field energy     =    -0.0000000362 hartrees
 Requested basis set is 6-31G(d)
 There are 24 shells and 84 basis functions
 A cutoff of  1.0D-09 yielded    264 shell pairs
 There are      3493 function pairs (      4017 Cartesian)
 Smallest overlap matrix eigenvalue = 5.13E-03
 Guess from superposition of atomic densities
 Warning:  Energy on first SCF cycle will be non-variational
 SAD guess density has 46.000000 electrons
 Long-range K will be added via erf
 Coulomb attenuation parameter = 0.2 bohr**(-1)
 An unrestricted hybrid HF-DFT SCF calculation will be
 performed using Relaxed Constraint Minimization + Pulay DIIS
 Exchange:     0.2220 Hartree-Fock + 1.0000 wB97X-D + LR-HF
 Correlation:  1.0000 wB97X-D
 Using Euler-Maclaurin-Lebedev (75,302) quadrature formula
 Dispersion:   Grimme D
 SCF converges when DIIS error is below 1.0E-04
 using 6 threads for integral computing
 -------------------------------------------------------
 OpenMP Integral computing Module                
 Release: version 1.0, May 2013, Q-Chem Inc. Pittsburgh 
 -------------------------------------------------------
 using 6 threads for integral computing
 -------------------------------------------------------
 OpenMP Integral computing Module                
 Release: version 1.0, May 2013, Q-Chem Inc. Pittsburgh 
 -------------------------------------------------------
 ---------------------------------------
  Cycle       Energy         DIIS Error
 ---------------------------------------
    1    -410.9658671072      8.73E-02
    2    -409.6430249296      1.93E-02
    3    -409.7455080132      4.30E-03
    4    -409.8896882297      4.70E-03
    5    -409.8959751061      7.70E-04 Done RCA. Switching to DIIS
    6    -409.9044737777      7.89E-04
    7    -409.9050255816      1.39E-04
    8    -409.9050858560      8.49E-05 Convergence criterion met
 ---------------------------------------
 <S^2> = 2.0136
 SCF time:  CPU 14.01 s  wall 2.35 s
 SCF   energy in the small basis set = -409.90508586
 Total energy in the small basis set = -409.90508586
 ----------------------------------------------------
  Cycle       Energy    
 ----------------------------------------------------
    1     -41.7337812820     -4.17E+01
 Long-range K will be added via erf
 Coulomb attenuation parameter = 0.2 bohr**(-1)
 An unrestricted hybrid HF-DFT SCF calculation will be
 performed using Relaxed Constraint Minimization + Pulay DIIS
 Exchange:     0.2220 Hartree-Fock + 1.0000 wB97X-D + LR-HF
 Correlation:  1.0000 wB97X-D
 Using Euler-Maclaurin-Lebedev (75,302) quadrature formula
 Dispersion:   Grimme D
 SCF converges when DIIS error is below 1.0E-05
 Basis2 calculation detected. Using small basis as guess for larger.
 SCFMinFind is unable to tell whether the solution found is close.
 Resetting ReadMinima to 0 and attempting to follow guess.
 SCFMinFind following SCF Guess.
 using 6 threads for integral computing
 -------------------------------------------------------
 OpenMP Integral computing Module                
 Release: version 1.0, May 2013, Q-Chem Inc. Pittsburgh 
 -------------------------------------------------------
 using 6 threads for integral computing
 -------------------------------------------------------
 OpenMP Integral computing Module                
 Release: version 1.0, May 2013, Q-Chem Inc. Pittsburgh 
 -------------------------------------------------------
 ---------------------------------------
  Cycle       Energy         DIIS Error
 ---------------------------------------
    1    -409.9983189069      8.01E-03
    2    -410.0097454069      3.98E-03
    3    -410.0299323547      9.46E-04 Done RCA. Switching to DIIS
    4    -410.0570969115      1.01E-03
    5    -410.0603803451      2.13E-04
    6    -410.0606112024      4.33E-05
    7    -410.0606714612      3.03E-05
    8    -410.0606862374      1.43E-05
    9    -410.0606960568      7.80E-06 Convergence criterion met
 ---------------------------------------
 <S^2> = 2.0150
 SCF time:  CPU 53.52 s  wall 8.95 s
 SCF   energy in the final basis set = -410.06069606
 Total energy in the final basis set = -410.06069606
 
 --------------------------------------------------------------
 
                    Orbital Energies (a.u.)
 --------------------------------------------------------------
 
 Alpha MOs
 -- Occupied --
-19.3962 -19.3958 -19.3580 -19.3518 -14.7672 -14.6285  -1.4384  -1.3616
 -1.2640  -1.1877  -0.8731  -0.7719  -0.7197  -0.7120  -0.6813  -0.6586
 -0.6342  -0.6321  -0.4904  -0.4880  -0.4690  -0.4546  -0.4013  -0.3404
 -- Virtual --
 -0.0348  -0.0117   0.0433   0.0941   0.1161   0.1363   0.1409   0.1674
  0.1788   0.1929   0.2329   0.2466   0.2554   0.2591   0.2738   0.2983
  0.3241   0.3288   0.3296   0.3450   0.3468   0.3586   0.3703   0.4053
  0.4247   0.4366   0.4454   0.4658   0.4939   0.5322   0.7425   0.7635
  0.7949   0.8483   0.8846   0.8953   0.9145   0.9540   0.9794   1.0124
  1.0246   1.0265   1.0653   1.0704   1.0865   1.1066   1.1140   1.1151
  1.1351   1.1445   1.1583   1.1841   1.2143   1.2184   1.2868   1.3313
  1.4202   1.4818   1.5230   1.5347   1.5530   1.5738   1.5777   1.6143
  1.6506   1.6877   1.6987   1.7677   1.8018   1.8430   1.9072   1.9235
  2.0612   2.1449   2.1876   2.2141   2.3683   2.3744   2.5076   2.5175
  2.5622   2.6017   2.7174   2.8076   3.4802   3.5115   3.5405   3.5721
  3.6068   3.6596   3.6640   3.7102   3.7485   3.7704   3.7934   3.8868
  3.9086   3.9508   4.0284   4.0575   4.1231   4.4135   4.4437   4.4751
  4.4924   4.5030   4.6566   4.6651   4.6964   4.7051   4.7192   4.7584
  4.7850   4.8559   5.0106   5.0246   5.0319   5.0344   5.0398   5.0432
  5.0589   5.0690   5.0863   5.1232   5.1285   5.1441   5.1525   5.1729
  5.2178   5.2784   5.3360   5.3534   5.3842   5.4327   5.4334   5.4670
  5.5539   5.6160   5.6633   5.7012   5.7099   5.7498   5.9322   5.9753
  6.2664   6.4532   6.5528   6.6780   6.7271   6.7307   6.7595   6.7868
  6.8158   6.8847   6.9066   6.9344   6.9424   7.0242   7.0700   7.1220
  7.1621   7.1654   7.1799   7.2515   7.2819   7.3441   7.4476   7.5597
  7.6388   7.7228   7.7511   7.8870   8.0482   8.3026  35.9081  36.1316
 49.9864  50.1831  50.2406  50.2606
 
 Beta MOs
 -- Occupied --
-19.3830 -19.3798 -19.3567 -19.3520 -14.7661 -14.6071  -1.4352  -1.3228
 -1.2622  -1.1507  -0.8275  -0.7437  -0.7096  -0.7035  -0.6740  -0.6098
 -0.5851  -0.5578  -0.4711  -0.4688  -0.4667  -0.4508
 -- Virtual --
 -0.0878  -0.0245  -0.0191   0.0271   0.0756   0.1032   0.1212   0.1403
  0.1446   0.1702   0.1829   0.1963   0.2348   0.2489   0.2574   0.2628
  0.2774   0.3020   0.3275   0.3309   0.3344   0.3470   0.3482   0.3614
  0.3740   0.4090   0.4303   0.4397   0.4488   0.4709   0.5252   0.5440
  0.7513   0.7769   0.8117   0.8667   0.8938   0.9040   0.9206   0.9648
  0.9939   1.0228   1.0349   1.0467   1.0721   1.0813   1.1033   1.1139
  1.1207   1.1269   1.1381   1.1545   1.1684   1.1954   1.2194   1.2292
  1.3004   1.3461   1.4298   1.4946   1.5275   1.5377   1.5672   1.5863
  1.5889   1.6337   1.6642   1.7023   1.7175   1.7738   1.8078   1.8540
  1.9122   1.9284   2.0790   2.1492   2.2040   2.2338   2.3765   2.3853
  2.5199   2.5299   2.5659   2.6156   2.7317   2.8148   3.5000   3.5593
  3.5846   3.6004   3.6160   3.6633   3.6752   3.7153   3.7528   3.8136
  3.8588   3.9098   3.9330   3.9616   4.0294   4.0854   4.1440   4.4212
  4.4523   4.4778   4.4967   4.5199   4.6732   4.7010   4.7389   4.7483
  4.7608   4.7985   4.8289   4.8848   5.0226   5.0334   5.0417   5.0426
  5.0635   5.0671   5.0700   5.0796   5.0990   5.1316   5.1504   5.1655
  5.1778   5.1872   5.2428   5.3020   5.3584   5.3724   5.3893   5.4372
  5.4461   5.4730   5.5731   5.6256   5.6938   5.7127   5.7335   5.7646
  5.9671   5.9870   6.2700   6.4654   6.5539   6.7225   6.7608   6.7834
  6.7876   6.7909   6.8221   6.8865   6.9329   6.9417   6.9738   7.0378
  7.0921   7.1305   7.1636   7.2017   7.2064   7.2616   7.3049   7.3481
  7.4782   7.5660   7.6666   7.7350   7.7597   7.8914   8.0823   8.3055
 35.9345  36.1331  50.0005  50.1973  50.2422  50.2609
 --------------------------------------------------------------
 
 -----------------------------------------------------------------
                    Cartesian Multipole Moments
 -----------------------------------------------------------------
    Charge (ESU x 10^10)
                -0.0000
    Dipole Moment (Debye)
         X      -0.1859      Y      -0.4099      Z       0.1263
       Tot       0.4675
    Quadrupole Moments (Debye-Ang)
        XX     -32.7060     XY      -0.8727     YY     -33.2068
        XZ      -1.8935     YZ       0.4188     ZZ     -32.1733
    Octopole Moments (Debye-Ang^2)
       XXX     -32.5875    XXY     -12.9182    XYY     -11.4800
       YYY     -38.8055    XXZ     -94.7204    XYZ      -3.5781
       YYZ     -91.8587    XZZ     -18.7045    YZZ      -5.5791
       ZZZ    -277.6851
    Hexadecapole Moments (Debye-Ang^3)
      XXXX    -133.8590   XXXY     -68.9177   XXYY     -87.3736
      XYYY     -72.4683   YYYY    -388.6621   XXXZ     -87.0028
      XXYZ     -11.0457   XYYZ     -28.3765   YYYZ     -18.8895
      XXZZ    -319.6170   XYZZ     -36.0911   YYZZ    -346.6874
      XZZZ    -110.0722   YZZZ      17.2361   ZZZZ   -1734.4905
 -----------------------------------------------------------------
Archival summary:
1\1\centos77-c5\SP\ProcedureUnspecified\BasisUnspecified\42(3)\shihchen\MonJul1315:31:432020MonJul1315:31:432020\0\\#,ProcedureUnspecified,BasisUnspecified,\\0,3\N\O,1,1.17881\O,1,1.17915,2,132.074\O,1,1.52869,2,114.595,3,179.29,0\N,4,1.5819,1,111.033,2,3.38691,0\O,5,1.17144,4,150.92,1,95.7149,0\\\@

 Total job time:  13.58s(wall), 71.56s(cpu) 
 Mon Jul 13 15:31:43 2020

        *************************************************************
        *                                                           *
        *  Thank you very much for using Q-Chem.  Have a nice day.  *
        *                                                           *
        *************************************************************


