                  Welcome to Q-Chem
     A Quantum Leap Into The Future Of Chemistry


 Q-Chem 5.3 (devel), Q-Chem, Inc., Pleasanton, CA (2020)

 Yihan Shao,  Zhengting Gan,  E. Epifanovsky,  A. T. B. Gilbert,  M. Wormit,  
 J. Kussmann,  A. W. Lange,  A. Behn,  Jia Deng,  Xintian Feng,  D. Ghosh,  
 M. Goldey,  P. R. Horn,  L. D. Jacobson,  I. Kaliman,  T. Kus,  A. Landau,  
 Jie Liu,  E. I. Proynov,  R. M. Richard,  R. P. Steele,  E. J. Sundstrom,  
 H. L. Woodcock III,  P. M. Zimmerman,  D. Zuev,  B. Alam,  B. Albrecht,  
 E. Alguire,  S. A. Baeppler,  D. Barton,  Z. Benda,  Y. A. Bernard,  
 E. J. Berquist,  K. B. Bravaya,  H. Burton,  K. Carter-Fenk,  D. Casanova,  
 Chun-Min Chang,  Yunqing Chen,  A. Chien,  K. D. Closser,  M. P. Coons,  
 S. Coriani,  S. Dasgupta,  A. L. Dempwolff,  M. Diedenhofen,  Hainam Do,  
 R. G. Edgar,  Po-Tung Fang,  S. Faraji,  S. Fatehi,  Qingguo Feng,  
 J. Fosso-Tande,  J. Gayvert,  Qinghui Ge,  A. Ghysels,  G. Gidofalvi,  
 J. Gomes,  J. Gonthier,  A. Gunina,  D. Hait,  M. W. D. Hanson-Heine,  
 P. H. P. Harbach,  A. W. Hauser,  M. F. Herbst,  J. E. Herr,  
 E. G. Hohenstein,  Z. C. Holden,  Kerwin Hui,  B. C. Huynh,  T.-C. Jagau,  
 Hyunjun Ji,  B. Kaduk,  K. Khistyaev,  Jaehoon Kim,  P. Klunzinger,  K. Koh,  
 D. Kosenkov,  L. Koulias,  T. Kowalczyk,  C. M. Krauter,  A. Kunitsa,  
 Ka Un Lao,  A. Laurent,  K. V. Lawler,  Joonho Lee,  D. Lefrancois,  
 S. Lehtola,  D. S. Levine,  Yi-Pei Li,  You-Sheng Lin,  Fenglai Liu,  
 Kuan-Yu Liu,  E. Livshits,  M. Loipersberger,  A. Luenser,  P. Manohar,  
 E. Mansoor,  S. F. Manzer,  Shan-Ping Mao,  Yuezhi Mao,  N. Mardirossian,  
 A. V. Marenich,  T. Markovich,  L. A. Martinez-Martinez,  S. A. Maurer,  
 N. J. Mayhall,  S. C. McKenzie,  J.-M. Mewes,  P. Morgante,  A. F. Morrison,  
 J. W. Mullinax,  K. Nanda,  T. S. Nguyen-Beck,  R. Olivares-Amaya,  
 K. J. Oosterbaan,  J. A. Parkhill,  S. K. Paul,  F. Pavosevic,  Zheng Pei,  
 T. M. Perrine,  F. Plasser,  P. Pokhilko,  S. Prager,  A. Prociuk,  
 E. Ramos,  B. Rana,  D. R. Rehn,  F. Rob,  M. Scheurer,  M. Schneider,  
 N. Sergueev,  S. M. Sharada,  S. Sharma,  D. W. Small,  T. Stauch,  
 C. J. Stein,  T. Stein,  Yu-Chuan Su,  S. P. Veccham,  Zhen Tao,  
 A. J. W. Thom,  A. Tkatchenko,  T. Tsuchimochi,  N. M. Tubman,  L. Vogt,  
 M. L. Vidal,  O. Vydrov,  M. A. Watson,  J. Wenzel,  M. de Wergifosse,  
 T. A. Wesolowski,  A. White,  J. Witte,  A. Yamada,  Jun Yang,  K. Yao,  
 S. Yeganeh,  S. R. Yost,  Zhi-Qiang You,  A. Zech,  Igor Ying Zhang,  
 Xing Zhang,  Yan Zhao,  Ying Zhu,  B. R. Brooks,  G. K. L. Chan,  
 C. J. Cramer,  M. S. Gordon,  W. J. Hehre,  A. Klamt,  M. W. Schmidt,  
 C. D. Sherrill,  D. G. Truhlar,  A. Aspuru-Guzik,  R. Baer,  A. T. Bell,  
 N. A. Besley,  Jeng-Da Chai,  A. E. DePrince, III,  R. A. DiStasio Jr.,  
 A. Dreuw,  B. D. Dunietz,  T. R. Furlani,  Chao-Ping Hsu,  Yousung Jung,  
 Jing Kong,  D. S. Lambrecht,  WanZhen Liang,  C. Ochsenfeld,  
 V. A. Rassolov,  L. V. Slipchenko,  J. E. Subotnik,  T. Van Voorhis,  
 J. M. Herbert,  A. I. Krylov,  P. M. W. Gill,  M. Head-Gordon

 Contributors to earlier versions of Q-Chem not listed above: 
 R. D. Adamson,  B. Austin,  J. Baker,  G. J. O. Beran,  K. Brandhorst,  
 S. T. Brown,  E. F. C. Byrd,  A. K. Chakraborty,  C.-L. Cheng,  
 Siu Hung Chien,  D. M. Chipman,  D. L. Crittenden,  H. Dachsel,  
 R. J. Doerksen,  A. D. Dutoi,  L. Fusti-Molnar,  W. A. Goddard III,  
 A. Golubeva-Zadorozhnaya,  S. R. Gwaltney,  G. Hawkins,  A. Heyden,  
 S. Hirata,  G. Kedziora,  F. J. Keil,  C. Kelley,  Jihan Kim,  R. A. King,  
 R. Z. Khaliullin,  P. P. Korambath,  W. Kurlancheek,  A. M. Lee,  M. S. Lee,  
 S. V. Levchenko,  Ching Yeh Lin,  D. Liotard,  R. C. Lochan,  I. Lotan,  
 P. E. Maslen,  N. Nair,  D. P. O'Neill,  D. Neuhauser,  E. Neuscamman,  
 C. M. Oana,  R. Olson,  B. Peters,  R. Peverati,  P. A. Pieniazek,  
 Y. M. Rhee,  J. Ritchie,  M. A. Rohrdanz,  E. Rosta,  N. J. Russ,  
 H. F. Schaefer III,  N. E. Schultz,  N. Shenvi,  A. C. Simmonett,  A. Sodt,  
 D. Stuck,  K. S. Thanthiriwatte,  V. Vanovschi,  Tao Wang,  A. Warshel,  
 C. F. Williams,  Q. Wu,  X. Xu,  W. Zhang

 Please cite Q-Chem as follows:
 Y. Shao et al., Mol. Phys. 113, 184-215 (2015)
 DOI: 10.1080/00268976.2014.952696

 Q-Chem 5.3.0 for Intel X86 EM64T Linux

 Parts of Q-Chem use Armadillo 9.800.1 (Horizon Scraper).
 http://arma.sourceforge.net/

 Q-Chem begins on Mon Jul 13 15:26:55 2020  

Host: centos77-c5
0

     Scratch files written to /tmp/29025.centos77-h1/qchem28583//
Processing $rem in /opt/qchem-5.3.0-intel2020u1//config/preferences:
Processing $rem in /home/shihchengli/.qchemrc:

Checking the input file for inconsistencies... 	...done.

--------------------------------------------------------------
User input:
--------------------------------------------------------------
$rem
   JOBTYPE  sp
   EXCHANGE   omegaB97X-D
   BASIS   6-311+G(2df,2pd)
   UNRESTRICTED   True
   max_scf_cycles   250
   geom_opt_max_cycles   1500
   basis2 6-31G*
   scf_algorithm rca_diis
   SYM_IGNORE  TRUE
   print_input   true
   geom_opt_dmax   80
   pop_mulliken false
   XC_GRID 000075000302
$end

$molecule
0 3
N       0.8790701528     1.3237412905     2.4939563858
O       0.1605210365     2.0257666986     1.8610217867
O       1.9523856753     1.4745706994     2.9531923307
N       -0.2209256660     -1.3086606164     3.1141680849
O       -0.8324677630     -1.5528839211     4.1026266561
O       0.0064076946     0.1324549588     2.5753346459
$end
--------------------------------------------------------------
 ----------------------------------------------------------------
             Standard Nuclear Orientation (Angstroms)
    I     Atom           X                Y                Z
 ----------------------------------------------------------------
    1      N       0.8790701528     1.3237412905     2.4939563858
    2      O       0.1605210365     2.0257666986     1.8610217867
    3      O       1.9523856753     1.4745706994     2.9531923307
    4      N      -0.2209256660    -1.3086606164     3.1141680849
    5      O      -0.8324677630    -1.5528839211     4.1026266561
    6      O       0.0064076946     0.1324549588     2.5753346459
 ----------------------------------------------------------------
 Nuclear Repulsion Energy =         223.84113499 hartrees
 There are       24 alpha and       22 beta electrons
 Requested basis set is 6-311+G(2df,2pd)
 There are 48 shells and 204 basis functions

 Total QAlloc Memory Limit   2000 MB
 Mega-Array Size       188 MB
 MEM_STATIC part       192 MB

                       Distance Matrix (Angstroms)
             N (  1)   O (  2)   O (  3)   N (  4)   O (  5)
   O (  2)  1.187333
   O (  3)  1.177138  2.169662
   N (  4)  2.919622  3.582497  3.534908
   O (  5)  3.713779  4.337921  4.271076  1.187720
   O (  6)  1.478961  2.029439  2.393926  1.555261  2.424191
 
 A cutoff of  1.0D-09 yielded    985 shell pairs
 There are     18270 function pairs (     23867 Cartesian)
 Smallest overlap matrix eigenvalue = 7.90E-04

 Scale SEOQF with 1.000000e-01/1.000000e-01/1.000000e-01

 Standard Electronic Orientation quadrupole field applied
 Nucleus-field energy     =    -0.0000000343 hartrees
 Requested basis set is 6-31G(d)
 There are 24 shells and 84 basis functions
 A cutoff of  1.0D-09 yielded    257 shell pairs
 There are      3393 function pairs (      3894 Cartesian)
 Smallest overlap matrix eigenvalue = 4.99E-03
 Guess from superposition of atomic densities
 Warning:  Energy on first SCF cycle will be non-variational
 SAD guess density has 46.000000 electrons
 Long-range K will be added via erf
 Coulomb attenuation parameter = 0.2 bohr**(-1)
 An unrestricted hybrid HF-DFT SCF calculation will be
 performed using Relaxed Constraint Minimization + Pulay DIIS
 Exchange:     0.2220 Hartree-Fock + 1.0000 wB97X-D + LR-HF
 Correlation:  1.0000 wB97X-D
 Using Euler-Maclaurin-Lebedev (75,302) quadrature formula
 Dispersion:   Grimme D
 SCF converges when DIIS error is below 1.0E-04
 using 6 threads for integral computing
 -------------------------------------------------------
 OpenMP Integral computing Module                
 Release: version 1.0, May 2013, Q-Chem Inc. Pittsburgh 
 -------------------------------------------------------
 using 6 threads for integral computing
 -------------------------------------------------------
 OpenMP Integral computing Module                
 Release: version 1.0, May 2013, Q-Chem Inc. Pittsburgh 
 -------------------------------------------------------
 ---------------------------------------
  Cycle       Energy         DIIS Error
 ---------------------------------------
    1    -411.0004434331      8.74E-02
    2    -409.6305879568      1.90E-02
    3    -409.7319990335      4.34E-03
    4    -409.8763620382      4.63E-03
    5    -409.8825127582      7.00E-04 Done RCA. Switching to DIIS
    6    -409.8908423144      6.25E-04
    7    -409.8913104312      1.58E-04
    8    -409.8913887684      5.84E-05 Convergence criterion met
 ---------------------------------------
 <S^2> = 2.0180
 SCF time:  CPU 13.83 s  wall 2.32 s
 SCF   energy in the small basis set = -409.89138877
 Total energy in the small basis set = -409.89138877
 ----------------------------------------------------
  Cycle       Energy    
 ----------------------------------------------------
    1     -41.7365645950     -4.17E+01
 Long-range K will be added via erf
 Coulomb attenuation parameter = 0.2 bohr**(-1)
 An unrestricted hybrid HF-DFT SCF calculation will be
 performed using Relaxed Constraint Minimization + Pulay DIIS
 Exchange:     0.2220 Hartree-Fock + 1.0000 wB97X-D + LR-HF
 Correlation:  1.0000 wB97X-D
 Using Euler-Maclaurin-Lebedev (75,302) quadrature formula
 Dispersion:   Grimme D
 SCF converges when DIIS error is below 1.0E-05
 Basis2 calculation detected. Using small basis as guess for larger.
 SCFMinFind is unable to tell whether the solution found is close.
 Resetting ReadMinima to 0 and attempting to follow guess.
 SCFMinFind following SCF Guess.
 using 6 threads for integral computing
 -------------------------------------------------------
 OpenMP Integral computing Module                
 Release: version 1.0, May 2013, Q-Chem Inc. Pittsburgh 
 -------------------------------------------------------
 using 6 threads for integral computing
 -------------------------------------------------------
 OpenMP Integral computing Module                
 Release: version 1.0, May 2013, Q-Chem Inc. Pittsburgh 
 -------------------------------------------------------
 ---------------------------------------
  Cycle       Energy         DIIS Error
 ---------------------------------------
    1    -409.9826853083      8.02E-03
    2    -409.9902341055      4.17E-03
    3    -410.0117502450      1.13E-03
    4    -410.0415744853      1.17E-03
    5    -410.0438360180      1.39E-04 Done RCA. Switching to DIIS
    6    -410.0471203101      1.42E-04
    7    -410.0472456613      5.42E-05
    8    -410.0473079293      2.04E-05
    9    -410.0473440317      1.29E-05
   10    -410.0473625961      8.63E-06 Convergence criterion met
 ---------------------------------------
 <S^2> = 2.0203
 SCF time:  CPU 60.82 s  wall 10.17 s
 SCF   energy in the final basis set = -410.04736260
 Total energy in the final basis set = -410.04736260
 
 --------------------------------------------------------------
 
                    Orbital Energies (a.u.)
 --------------------------------------------------------------
 
 Alpha MOs
 -- Occupied --
-19.3853 -19.3829 -19.3691 -19.3670 -14.7757 -14.6151  -1.4493  -1.3439
 -1.2795  -1.1790  -0.8944  -0.7691  -0.7255  -0.7204  -0.6877  -0.6389
 -0.6192  -0.5912  -0.5239  -0.4878  -0.4731  -0.4624  -0.4221  -0.3276
 -- Virtual --
 -0.0347  -0.0194   0.0825   0.1171   0.1303   0.1348   0.1389   0.1628
  0.1785   0.1876   0.2134   0.2335   0.2478   0.2582   0.2777   0.2843
  0.2921   0.3248   0.3298   0.3409   0.3451   0.3611   0.3838   0.3854
  0.4020   0.4257   0.4592   0.4689   0.5227   0.5371   0.7729   0.7764
  0.8208   0.8344   0.8446   0.8643   0.9287   0.9435   0.9853   1.0097
  1.0352   1.0471   1.0506   1.0713   1.0803   1.0813   1.1038   1.1193
  1.1323   1.1418   1.1634   1.1887   1.2546   1.3029   1.3089   1.3950
  1.4608   1.4943   1.5246   1.5486   1.5575   1.5622   1.5830   1.6110
  1.6401   1.6562   1.7162   1.7554   1.8212   1.8501   1.9430   1.9598
  2.0136   2.0906   2.1304   2.2144   2.2840   2.4214   2.4516   2.4833
  2.5107   2.5844   2.6637   2.7553   3.4659   3.5320   3.5762   3.6043
  3.6372   3.6529   3.6644   3.7146   3.7328   3.7767   3.8091   3.8603
  3.9395   3.9924   4.0544   4.0946   4.2793   4.4242   4.4361   4.4685
  4.5671   4.6387   4.6866   4.6917   4.7035   4.7204   4.7298   4.7772
  4.9350   4.9609   5.0008   5.0197   5.0212   5.0261   5.0309   5.0445
  5.0518   5.0586   5.0744   5.1029   5.1169   5.1244   5.1321   5.1937
  5.2169   5.2407   5.2823   5.3595   5.3932   5.4323   5.4538   5.4908
  5.5335   5.5470   5.5942   5.6529   5.7793   5.8607   5.9678   6.1607
  6.4521   6.5408   6.5812   6.6918   6.7270   6.7423   6.7445   6.7531
  6.7735   6.8007   6.8202   6.8659   6.8886   6.9518   7.1264   7.1402
  7.1562   7.1713   7.2147   7.2372   7.2807   7.3733   7.4407   7.4731
  7.6213   7.6671   7.7885   7.8483   8.0978   8.2866  35.8833  36.1328
 49.9588  50.1500  50.2226  50.2512
 
 Beta MOs
 -- Occupied --
-19.3743 -19.3692 -19.3656 -19.3625 -14.7747 -14.5974  -1.4439  -1.3061
 -1.2737  -1.1474  -0.8564  -0.7481  -0.7178  -0.6936  -0.6809  -0.5740
 -0.5668  -0.5426  -0.4831  -0.4767  -0.4551  -0.4439
 -- Virtual --
 -0.1410  -0.0295  -0.0168   0.0310   0.0867   0.1223   0.1334   0.1396
  0.1650   0.1700   0.1837   0.1940   0.2154   0.2356   0.2512   0.2610
  0.2801   0.2878   0.3005   0.3259   0.3317   0.3434   0.3475   0.3646
  0.3862   0.3902   0.4132   0.4374   0.4628   0.4811   0.5275   0.5453
  0.7751   0.7911   0.8312   0.8501   0.8627   0.8712   0.9349   0.9479
  0.9959   1.0266   1.0416   1.0543   1.0580   1.0810   1.0930   1.1005
  1.1151   1.1436   1.1441   1.1476   1.1714   1.1996   1.2656   1.3123
  1.3186   1.4042   1.4787   1.5039   1.5264   1.5606   1.5632   1.5799
  1.5990   1.6246   1.6575   1.6722   1.7222   1.7739   1.8284   1.8574
  1.9511   1.9746   2.0272   2.1085   2.1397   2.2339   2.2934   2.4309
  2.4640   2.4995   2.5136   2.5896   2.6746   2.7613   3.4855   3.5652
  3.5971   3.6245   3.6489   3.6544   3.6778   3.7228   3.7589   3.8311
  3.8478   3.8769   3.9684   4.0005   4.0655   4.1128   4.2868   4.4281
  4.4404   4.4710   4.5966   4.6484   4.7058   4.7108   4.7369   4.7565
  4.7670   4.8148   4.9674   5.0030   5.0124   5.0231   5.0308   5.0431
  5.0518   5.0731   5.0772   5.0849   5.0885   5.1163   5.1269   5.1433
  5.1635   5.2108   5.2423   5.2636   5.3013   5.3695   5.4102   5.4509
  5.4702   5.5039   5.5445   5.5654   5.6112   5.6734   5.7934   5.8730
  5.9811   6.1759   6.4653   6.5456   6.6225   6.7201   6.7486   6.7528
  6.7797   6.7967   6.8116   6.8214   6.8434   6.8885   6.9073   6.9553
  7.1396   7.1541   7.1747   7.2042   7.2274   7.2452   7.3007   7.3892
  7.4577   7.4909   7.6415   7.6944   7.7936   7.8529   8.1244   8.2919
 35.9050  36.1342  49.9702  50.1662  50.2268  50.2512
 --------------------------------------------------------------
 
 -----------------------------------------------------------------
                    Cartesian Multipole Moments
 -----------------------------------------------------------------
    Charge (ESU x 10^10)
                -0.0000
    Dipole Moment (Debye)
         X       0.4104      Y      -0.0249      Z      -0.0152
       Tot       0.4114
    Quadrupole Moments (Debye-Ang)
        XX     -33.1483     XY      -0.3954     YY     -32.5980
        XZ       0.4526     YZ       1.4090     ZZ     -32.2176
    Octopole Moments (Debye-Ang^2)
       XXX     -34.3681    XXY     -12.6030    XYY     -10.8730
       YYY     -36.1853    XXZ     -96.6743    XYZ      -2.9995
       YYZ     -91.7638    XZZ      -9.0546    YZZ      -1.3602
       ZZZ    -275.8418
    Hexadecapole Moments (Debye-Ang^3)
      XXXX    -201.1435   XXXY     -99.5779   XXYY    -104.4139
      XYYY     -95.4726   YYYY    -412.6927   XXXZ     -78.4741
      XXYZ     -12.6441   XYYZ     -23.2224   YYYZ     -22.7160
      XXZZ    -331.4801   XYZZ     -44.8650   YYZZ    -348.3914
      XZZZ     -58.1506   YZZZ      28.3177   ZZZZ   -1689.1048
 -----------------------------------------------------------------
Archival summary:
1\1\centos77-c5\SP\ProcedureUnspecified\BasisUnspecified\42(3)\shihchen\MonJul1315:27:102020MonJul1315:27:102020\0\\#,ProcedureUnspecified,BasisUnspecified,\\0,3\N\O,1,1.17714\O,1,1.18733,2,133.158\O,1,1.47896,2,128.298,3,-179.099,0\N,4,1.55526,1,148.395,2,2.15075,0\O,5,1.18772,4,123.651,1,95.6949,0\\\@

 Total job time:  14.68s(wall), 78.55s(cpu) 
 Mon Jul 13 15:27:10 2020

        *************************************************************
        *                                                           *
        *  Thank you very much for using Q-Chem.  Have a nice day.  *
        *                                                           *
        *************************************************************


