                  Welcome to Q-Chem
     A Quantum Leap Into The Future Of Chemistry


 Q-Chem 5.3 (devel), Q-Chem, Inc., Pleasanton, CA (2020)

 Yihan Shao,  Zhengting Gan,  E. Epifanovsky,  A. T. B. Gilbert,  M. Wormit,  
 J. Kussmann,  A. W. Lange,  A. Behn,  Jia Deng,  Xintian Feng,  D. Ghosh,  
 M. Goldey,  P. R. Horn,  L. D. Jacobson,  I. Kaliman,  T. Kus,  A. Landau,  
 Jie Liu,  E. I. Proynov,  R. M. Richard,  R. P. Steele,  E. J. Sundstrom,  
 H. L. Woodcock III,  P. M. Zimmerman,  D. Zuev,  B. Alam,  B. Albrecht,  
 E. Alguire,  S. A. Baeppler,  D. Barton,  Z. Benda,  Y. A. Bernard,  
 E. J. Berquist,  K. B. Bravaya,  H. Burton,  K. Carter-Fenk,  D. Casanova,  
 Chun-Min Chang,  Yunqing Chen,  A. Chien,  K. D. Closser,  M. P. Coons,  
 S. Coriani,  S. Dasgupta,  A. L. Dempwolff,  M. Diedenhofen,  Hainam Do,  
 R. G. Edgar,  Po-Tung Fang,  S. Faraji,  S. Fatehi,  Qingguo Feng,  
 J. Fosso-Tande,  J. Gayvert,  Qinghui Ge,  A. Ghysels,  G. Gidofalvi,  
 J. Gomes,  J. Gonthier,  A. Gunina,  D. Hait,  M. W. D. Hanson-Heine,  
 P. H. P. Harbach,  A. W. Hauser,  M. F. Herbst,  J. E. Herr,  
 E. G. Hohenstein,  Z. C. Holden,  Kerwin Hui,  B. C. Huynh,  T.-C. Jagau,  
 Hyunjun Ji,  B. Kaduk,  K. Khistyaev,  Jaehoon Kim,  P. Klunzinger,  K. Koh,  
 D. Kosenkov,  L. Koulias,  T. Kowalczyk,  C. M. Krauter,  A. Kunitsa,  
 Ka Un Lao,  A. Laurent,  K. V. Lawler,  Joonho Lee,  D. Lefrancois,  
 S. Lehtola,  D. S. Levine,  Yi-Pei Li,  You-Sheng Lin,  Fenglai Liu,  
 Kuan-Yu Liu,  E. Livshits,  M. Loipersberger,  A. Luenser,  P. Manohar,  
 E. Mansoor,  S. F. Manzer,  Shan-Ping Mao,  Yuezhi Mao,  N. Mardirossian,  
 A. V. Marenich,  T. Markovich,  L. A. Martinez-Martinez,  S. A. Maurer,  
 N. J. Mayhall,  S. C. McKenzie,  J.-M. Mewes,  P. Morgante,  A. F. Morrison,  
 J. W. Mullinax,  K. Nanda,  T. S. Nguyen-Beck,  R. Olivares-Amaya,  
 K. J. Oosterbaan,  J. A. Parkhill,  S. K. Paul,  F. Pavosevic,  Zheng Pei,  
 T. M. Perrine,  F. Plasser,  P. Pokhilko,  S. Prager,  A. Prociuk,  
 E. Ramos,  B. Rana,  D. R. Rehn,  F. Rob,  M. Scheurer,  M. Schneider,  
 N. Sergueev,  S. M. Sharada,  S. Sharma,  D. W. Small,  T. Stauch,  
 C. J. Stein,  T. Stein,  Yu-Chuan Su,  S. P. Veccham,  Zhen Tao,  
 A. J. W. Thom,  A. Tkatchenko,  T. Tsuchimochi,  N. M. Tubman,  L. Vogt,  
 M. L. Vidal,  O. Vydrov,  M. A. Watson,  J. Wenzel,  M. de Wergifosse,  
 T. A. Wesolowski,  A. White,  J. Witte,  A. Yamada,  Jun Yang,  K. Yao,  
 S. Yeganeh,  S. R. Yost,  Zhi-Qiang You,  A. Zech,  Igor Ying Zhang,  
 Xing Zhang,  Yan Zhao,  Ying Zhu,  B. R. Brooks,  G. K. L. Chan,  
 C. J. Cramer,  M. S. Gordon,  W. J. Hehre,  A. Klamt,  M. W. Schmidt,  
 C. D. Sherrill,  D. G. Truhlar,  A. Aspuru-Guzik,  R. Baer,  A. T. Bell,  
 N. A. Besley,  Jeng-Da Chai,  A. E. DePrince, III,  R. A. DiStasio Jr.,  
 A. Dreuw,  B. D. Dunietz,  T. R. Furlani,  Chao-Ping Hsu,  Yousung Jung,  
 Jing Kong,  D. S. Lambrecht,  WanZhen Liang,  C. Ochsenfeld,  
 V. A. Rassolov,  L. V. Slipchenko,  J. E. Subotnik,  T. Van Voorhis,  
 J. M. Herbert,  A. I. Krylov,  P. M. W. Gill,  M. Head-Gordon

 Contributors to earlier versions of Q-Chem not listed above: 
 R. D. Adamson,  B. Austin,  J. Baker,  G. J. O. Beran,  K. Brandhorst,  
 S. T. Brown,  E. F. C. Byrd,  A. K. Chakraborty,  C.-L. Cheng,  
 Siu Hung Chien,  D. M. Chipman,  D. L. Crittenden,  H. Dachsel,  
 R. J. Doerksen,  A. D. Dutoi,  L. Fusti-Molnar,  W. A. Goddard III,  
 A. Golubeva-Zadorozhnaya,  S. R. Gwaltney,  G. Hawkins,  A. Heyden,  
 S. Hirata,  G. Kedziora,  F. J. Keil,  C. Kelley,  Jihan Kim,  R. A. King,  
 R. Z. Khaliullin,  P. P. Korambath,  W. Kurlancheek,  A. M. Lee,  M. S. Lee,  
 S. V. Levchenko,  Ching Yeh Lin,  D. Liotard,  R. C. Lochan,  I. Lotan,  
 P. E. Maslen,  N. Nair,  D. P. O'Neill,  D. Neuhauser,  E. Neuscamman,  
 C. M. Oana,  R. Olson,  B. Peters,  R. Peverati,  P. A. Pieniazek,  
 Y. M. Rhee,  J. Ritchie,  M. A. Rohrdanz,  E. Rosta,  N. J. Russ,  
 H. F. Schaefer III,  N. E. Schultz,  N. Shenvi,  A. C. Simmonett,  A. Sodt,  
 D. Stuck,  K. S. Thanthiriwatte,  V. Vanovschi,  Tao Wang,  A. Warshel,  
 C. F. Williams,  Q. Wu,  X. Xu,  W. Zhang

 Please cite Q-Chem as follows:
 Y. Shao et al., Mol. Phys. 113, 184-215 (2015)
 DOI: 10.1080/00268976.2014.952696

 Q-Chem 5.3.0 for Intel X86 EM64T Linux

 Parts of Q-Chem use Armadillo 9.800.1 (Horizon Scraper).
 http://arma.sourceforge.net/

 Q-Chem begins on Mon Jul 13 15:36:08 2020  

Host: centos77-c5
0

     Scratch files written to /tmp/29025.centos77-h1/qchem62297//
Processing $rem in /opt/qchem-5.3.0-intel2020u1//config/preferences:
Processing $rem in /home/shihchengli/.qchemrc:

Checking the input file for inconsistencies... 	...done.

--------------------------------------------------------------
User input:
--------------------------------------------------------------
$rem
   JOBTYPE  sp
   EXCHANGE   omegaB97X-D
   BASIS   6-311+G(2df,2pd)
   UNRESTRICTED   True
   max_scf_cycles   250
   geom_opt_max_cycles   1500
   basis2 6-31G*
   scf_algorithm rca_diis
   SYM_IGNORE  TRUE
   print_input   true
   geom_opt_dmax   80
   pop_mulliken false
   XC_GRID 000075000302
$end

$molecule
0 3
N       0.6484477935     1.3417273053     2.4195818388
O       0.5189170751     2.4031552479     1.9381612758
O       1.5408462756     0.9981780003     3.0768456004
N       0.1114979053     -1.3672702587     3.1813964698
O       -0.5566533513     -1.2134211993     4.1503515893
O       -0.3180645681     -0.0673799855     2.3339631158
$end
--------------------------------------------------------------
 ----------------------------------------------------------------
             Standard Nuclear Orientation (Angstroms)
    I     Atom           X                Y                Z
 ----------------------------------------------------------------
    1      N       0.6484477935     1.3417273053     2.4195818388
    2      O       0.5189170751     2.4031552479     1.9381612758
    3      O       1.5408462756     0.9981780003     3.0768456004
    4      N       0.1114979053    -1.3672702587     3.1813964698
    5      O      -0.5566533513    -1.2134211993     4.1503515893
    6      O      -0.3180645681    -0.0673799855     2.3339631158
 ----------------------------------------------------------------
 Nuclear Repulsion Energy =         225.60606726 hartrees
 There are       24 alpha and       22 beta electrons
 Requested basis set is 6-311+G(2df,2pd)
 There are 48 shells and 204 basis functions

 Total QAlloc Memory Limit   2000 MB
 Mega-Array Size       188 MB
 MEM_STATIC part       192 MB

                       Distance Matrix (Angstroms)
             N (  1)   O (  2)   O (  3)   N (  4)   O (  5)
   O (  2)  1.172678
   O (  3)  1.160343  2.077234
   N (  4)  2.864846  3.990956  2.765739
   O (  5)  3.313098  4.373816  3.231577  1.187000
   O (  6)  1.710865  2.638322  2.267783  1.610088  2.160926
 
 A cutoff of  1.0D-09 yielded   1008 shell pairs
 There are     18776 function pairs (     24589 Cartesian)
 Smallest overlap matrix eigenvalue = 7.46E-04

 Scale SEOQF with 1.000000e-01/1.000000e-01/1.000000e-01

 Standard Electronic Orientation quadrupole field applied
 Nucleus-field energy     =    -0.0000000352 hartrees
 Requested basis set is 6-31G(d)
 There are 24 shells and 84 basis functions
 A cutoff of  1.0D-09 yielded    261 shell pairs
 There are      3444 function pairs (      3953 Cartesian)
 Smallest overlap matrix eigenvalue = 5.40E-03
 Guess from superposition of atomic densities
 Warning:  Energy on first SCF cycle will be non-variational
 SAD guess density has 46.000000 electrons
 Long-range K will be added via erf
 Coulomb attenuation parameter = 0.2 bohr**(-1)
 An unrestricted hybrid HF-DFT SCF calculation will be
 performed using Relaxed Constraint Minimization + Pulay DIIS
 Exchange:     0.2220 Hartree-Fock + 1.0000 wB97X-D + LR-HF
 Correlation:  1.0000 wB97X-D
 Using Euler-Maclaurin-Lebedev (75,302) quadrature formula
 Dispersion:   Grimme D
 SCF converges when DIIS error is below 1.0E-04
 using 6 threads for integral computing
 -------------------------------------------------------
 OpenMP Integral computing Module                
 Release: version 1.0, May 2013, Q-Chem Inc. Pittsburgh 
 -------------------------------------------------------
 using 6 threads for integral computing
 -------------------------------------------------------
 OpenMP Integral computing Module                
 Release: version 1.0, May 2013, Q-Chem Inc. Pittsburgh 
 -------------------------------------------------------
 ---------------------------------------
  Cycle       Energy         DIIS Error
 ---------------------------------------
    1    -410.8314128591      8.63E-02
    2    -409.6357948589      1.79E-02
    3    -409.7316637052      3.39E-03
    4    -409.8642377431      2.86E-03
    5    -409.8669846349      5.10E-04 Done RCA. Switching to DIIS
    6    -409.8713149598      3.59E-04
    7    -409.8717634223      2.00E-04
    8    -409.8720097922      1.16E-04
    9    -409.8721702345      6.48E-05 Convergence criterion met
 ---------------------------------------
 <S^2> = 2.0278
 SCF time:  CPU 14.93 s  wall 2.50 s
 SCF   energy in the small basis set = -409.87217023
 Total energy in the small basis set = -409.87217023
 ----------------------------------------------------
  Cycle       Energy    
 ----------------------------------------------------
    1     -41.6938894736     -4.17E+01
 Long-range K will be added via erf
 Coulomb attenuation parameter = 0.2 bohr**(-1)
 An unrestricted hybrid HF-DFT SCF calculation will be
 performed using Relaxed Constraint Minimization + Pulay DIIS
 Exchange:     0.2220 Hartree-Fock + 1.0000 wB97X-D + LR-HF
 Correlation:  1.0000 wB97X-D
 Using Euler-Maclaurin-Lebedev (75,302) quadrature formula
 Dispersion:   Grimme D
 SCF converges when DIIS error is below 1.0E-05
 Basis2 calculation detected. Using small basis as guess for larger.
 SCFMinFind is unable to tell whether the solution found is close.
 Resetting ReadMinima to 0 and attempting to follow guess.
 SCFMinFind following SCF Guess.
 using 6 threads for integral computing
 -------------------------------------------------------
 OpenMP Integral computing Module                
 Release: version 1.0, May 2013, Q-Chem Inc. Pittsburgh 
 -------------------------------------------------------
 using 6 threads for integral computing
 -------------------------------------------------------
 OpenMP Integral computing Module                
 Release: version 1.0, May 2013, Q-Chem Inc. Pittsburgh 
 -------------------------------------------------------
 ---------------------------------------
  Cycle       Energy         DIIS Error
 ---------------------------------------
    1    -409.9568354391      8.05E-03
    2    -409.9651197589      4.28E-03
    3    -409.9887863827      1.05E-03
    4    -410.0217464282      1.17E-03
    5    -410.0239076855      1.71E-04 Done RCA. Switching to DIIS
    6    -410.0273251408      1.72E-04
    7    -410.0278182813      5.98E-05
    8    -410.0279771792      3.69E-05
    9    -410.0281247065      3.18E-05
   10    -410.0282017411      2.30E-05
   11    -410.0282843034      1.34E-05
   12    -410.0283199909      1.02E-05
   13    -410.0283334217      5.90E-06 Convergence criterion met
 ---------------------------------------
 <S^2> = 2.0273
 SCF time:  CPU 76.74 s  wall 12.82 s
 SCF   energy in the final basis set = -410.02833342
 Total energy in the final basis set = -410.02833342
 
 --------------------------------------------------------------
 
                    Orbital Energies (a.u.)
 --------------------------------------------------------------
 
 Alpha MOs
 -- Occupied --
-19.4105 -19.3816 -19.3699 -19.3449 -14.7501 -14.6169  -1.4441  -1.3706
 -1.2630  -1.1376  -0.8477  -0.7799  -0.7164  -0.7076  -0.6753  -0.6574
 -0.6391  -0.6232  -0.4912  -0.4748  -0.4627  -0.4579  -0.4388  -0.3326
 -- Virtual --
 -0.0710  -0.0196   0.0481   0.0994   0.1224   0.1357   0.1418   0.1666
  0.1737   0.1807   0.2279   0.2396   0.2484   0.2734   0.2787   0.2804
  0.3066   0.3321   0.3427   0.3480   0.3567   0.3663   0.3706   0.3944
  0.4102   0.4363   0.4428   0.4533   0.4935   0.5373   0.7491   0.7733
  0.7941   0.8211   0.8439   0.9180   0.9362   0.9428   0.9621   1.0136
  1.0271   1.0431   1.0492   1.0688   1.0823   1.0978   1.1083   1.1268
  1.1310   1.1450   1.1615   1.1772   1.2215   1.2544   1.2723   1.3506
  1.3783   1.4504   1.5030   1.5398   1.5508   1.5836   1.5926   1.6052
  1.6382   1.6569   1.6980   1.7741   1.8134   1.8553   1.8992   1.9689
  1.9690   2.1089   2.1486   2.1860   2.2319   2.3196   2.3629   2.4787
  2.4956   2.5528   2.5870   2.7318   3.4808   3.5468   3.5786   3.6053
  3.6453   3.6695   3.6852   3.7276   3.7699   3.7811   3.8184   3.8737
  3.9279   3.9357   3.9805   4.0282   4.1093   4.4476   4.4543   4.4737
  4.5305   4.5576   4.6356   4.6431   4.6564   4.6991   4.7494   4.8183
  4.8728   4.9366   4.9925   5.0015   5.0131   5.0250   5.0365   5.0367
  5.0467   5.0647   5.0767   5.0981   5.1150   5.1420   5.1500   5.1716
  5.1991   5.2567   5.2854   5.3193   5.3344   5.3863   5.4152   5.4470
  5.4782   5.5916   5.6199   5.6855   5.7156   5.7553   5.9102   5.9829
  6.1055   6.3263   6.5684   6.6451   6.6509   6.7061   6.7170   6.7633
  6.7938   6.7973   6.8541   6.8653   6.8942   6.9994   7.0669   7.1110
  7.1424   7.1812   7.1896   7.2070   7.2295   7.3562   7.4316   7.5283
  7.6021   7.6540   7.6603   7.7802   7.8462   8.1876  35.8980  36.2190
 49.9735  50.1225  50.2427  50.2680
 
 Beta MOs
 -- Occupied --
-19.3895 -19.3690 -19.3677 -19.3450 -14.7477 -14.6050  -1.4404  -1.3301
 -1.2594  -1.0942  -0.8077  -0.7518  -0.7046  -0.7026  -0.6707  -0.5960
 -0.5799  -0.5664  -0.4709  -0.4580  -0.4414  -0.4286
 -- Virtual --
 -0.1542  -0.0648  -0.0154   0.0046   0.0867   0.1035   0.1270   0.1399
  0.1483   0.1689   0.1778   0.1851   0.2295   0.2420   0.2523   0.2754
  0.2818   0.2842   0.3130   0.3330   0.3463   0.3496   0.3595   0.3723
  0.3732   0.4015   0.4195   0.4424   0.4473   0.4554   0.5057   0.5431
  0.7540   0.7810   0.8077   0.8331   0.8567   0.9259   0.9413   0.9465
  0.9747   1.0234   1.0341   1.0572   1.0617   1.0800   1.0922   1.1098
  1.1184   1.1322   1.1471   1.1549   1.1763   1.1883   1.2358   1.2666
  1.2831   1.3605   1.3962   1.4611   1.5164   1.5485   1.5576   1.5917
  1.6016   1.6257   1.6625   1.6664   1.7155   1.7899   1.8207   1.8686
  1.9014   1.9834   1.9915   2.1284   2.1560   2.2024   2.2442   2.3237
  2.3784   2.4917   2.5070   2.5553   2.5910   2.7374   3.4918   3.5688
  3.5949   3.6239   3.6679   3.6740   3.6987   3.7328   3.7963   3.8208
  3.8379   3.8896   3.9453   3.9629   3.9952   4.0306   4.1162   4.4512
  4.4601   4.4778   4.5383   4.5790   4.6469   4.6549   4.6806   4.7442
  4.7750   4.8418   4.9081   4.9865   5.0212   5.0273   5.0313   5.0460
  5.0487   5.0519   5.0740   5.0764   5.1012   5.1145   5.1350   5.1634
  5.1798   5.1900   5.2126   5.2812   5.3111   5.3320   5.3586   5.3922
  5.4240   5.4595   5.5097   5.6197   5.6397   5.6897   5.7209   5.7866
  5.9247   5.9891   6.1436   6.3314   6.6071   6.6497   6.6874   6.7688
  6.7817   6.7887   6.8043   6.8058   6.8574   6.8750   6.9193   7.0290
  7.0925   7.1242   7.1807   7.1914   7.2086   7.2318   7.2380   7.3809
  7.4422   7.5421   7.6117   7.6818   7.6850   7.7988   7.8497   8.1920
 35.9124  36.2220  49.9877  50.1425  50.2447  50.2682
 --------------------------------------------------------------
 
 -----------------------------------------------------------------
                    Cartesian Multipole Moments
 -----------------------------------------------------------------
    Charge (ESU x 10^10)
                 0.0000
    Dipole Moment (Debye)
         X      -0.1616      Y      -0.2931      Z       0.1615
       Tot       0.3717
    Quadrupole Moments (Debye-Ang)
        XX     -33.2194     XY      -0.2532     YY     -31.9498
        XZ      -1.4225     YZ      -0.7670     ZZ     -30.7365
    Octopole Moments (Debye-Ang^2)
       XXX     -32.7960    XXY     -11.8575    XYY     -11.4594
       YYY     -39.7491    XXZ     -96.2469    XYZ      -1.7947
       YYZ     -86.7594    XZZ     -15.8695    YZZ     -13.0774
       ZZZ    -266.5780
    Hexadecapole Moments (Debye-Ang^3)
      XXXX    -138.6423   XXXY     -67.5251   XXYY     -90.5933
      XYYY     -66.2390   YYYY    -407.0545   XXXZ     -81.8351
      XXYZ     -11.7852   XYYZ     -28.2052   YYYZ     -37.5880
      XXZZ    -320.2691   XYZZ     -29.7256   YYZZ    -323.1440
      XZZZ     -91.3697   YZZZ     -28.9487   ZZZZ   -1648.4827
 -----------------------------------------------------------------
Archival summary:
1\1\centos77-c5\SP\ProcedureUnspecified\BasisUnspecified\42(3)\shihchen\MonJul1315:36:262020MonJul1315:36:262020\0\\#,ProcedureUnspecified,BasisUnspecified,\\0,3\N\O,1,1.16034\O,1,1.17268,2,125.837\O,1,1.71087,2,102.648,3,178.498,0\N,4,1.61009,1,119.202,2,4.42626,0\O,5,1.187,4,100.069,1,95.682,0\\\@

 Total job time:  17.57s(wall), 95.79s(cpu) 
 Mon Jul 13 15:36:26 2020

        *************************************************************
        *                                                           *
        *  Thank you very much for using Q-Chem.  Have a nice day.  *
        *                                                           *
        *************************************************************


