                  Welcome to Q-Chem
     A Quantum Leap Into The Future Of Chemistry


 Q-Chem 5.3 (devel), Q-Chem, Inc., Pleasanton, CA (2020)

 Yihan Shao,  Zhengting Gan,  E. Epifanovsky,  A. T. B. Gilbert,  M. Wormit,  
 J. Kussmann,  A. W. Lange,  A. Behn,  Jia Deng,  Xintian Feng,  D. Ghosh,  
 M. Goldey,  P. R. Horn,  L. D. Jacobson,  I. Kaliman,  T. Kus,  A. Landau,  
 Jie Liu,  E. I. Proynov,  R. M. Richard,  R. P. Steele,  E. J. Sundstrom,  
 H. L. Woodcock III,  P. M. Zimmerman,  D. Zuev,  B. Alam,  B. Albrecht,  
 E. Alguire,  S. A. Baeppler,  D. Barton,  Z. Benda,  Y. A. Bernard,  
 E. J. Berquist,  K. B. Bravaya,  H. Burton,  K. Carter-Fenk,  D. Casanova,  
 Chun-Min Chang,  Yunqing Chen,  A. Chien,  K. D. Closser,  M. P. Coons,  
 S. Coriani,  S. Dasgupta,  A. L. Dempwolff,  M. Diedenhofen,  Hainam Do,  
 R. G. Edgar,  Po-Tung Fang,  S. Faraji,  S. Fatehi,  Qingguo Feng,  
 J. Fosso-Tande,  J. Gayvert,  Qinghui Ge,  A. Ghysels,  G. Gidofalvi,  
 J. Gomes,  J. Gonthier,  A. Gunina,  D. Hait,  M. W. D. Hanson-Heine,  
 P. H. P. Harbach,  A. W. Hauser,  M. F. Herbst,  J. E. Herr,  
 E. G. Hohenstein,  Z. C. Holden,  Kerwin Hui,  B. C. Huynh,  T.-C. Jagau,  
 Hyunjun Ji,  B. Kaduk,  K. Khistyaev,  Jaehoon Kim,  P. Klunzinger,  K. Koh,  
 D. Kosenkov,  L. Koulias,  T. Kowalczyk,  C. M. Krauter,  A. Kunitsa,  
 Ka Un Lao,  A. Laurent,  K. V. Lawler,  Joonho Lee,  D. Lefrancois,  
 S. Lehtola,  D. S. Levine,  Yi-Pei Li,  You-Sheng Lin,  Fenglai Liu,  
 Kuan-Yu Liu,  E. Livshits,  M. Loipersberger,  A. Luenser,  P. Manohar,  
 E. Mansoor,  S. F. Manzer,  Shan-Ping Mao,  Yuezhi Mao,  N. Mardirossian,  
 A. V. Marenich,  T. Markovich,  L. A. Martinez-Martinez,  S. A. Maurer,  
 N. J. Mayhall,  S. C. McKenzie,  J.-M. Mewes,  P. Morgante,  A. F. Morrison,  
 J. W. Mullinax,  K. Nanda,  T. S. Nguyen-Beck,  R. Olivares-Amaya,  
 K. J. Oosterbaan,  J. A. Parkhill,  S. K. Paul,  F. Pavosevic,  Zheng Pei,  
 T. M. Perrine,  F. Plasser,  P. Pokhilko,  S. Prager,  A. Prociuk,  
 E. Ramos,  B. Rana,  D. R. Rehn,  F. Rob,  M. Scheurer,  M. Schneider,  
 N. Sergueev,  S. M. Sharada,  S. Sharma,  D. W. Small,  T. Stauch,  
 C. J. Stein,  T. Stein,  Yu-Chuan Su,  S. P. Veccham,  Zhen Tao,  
 A. J. W. Thom,  A. Tkatchenko,  T. Tsuchimochi,  N. M. Tubman,  L. Vogt,  
 M. L. Vidal,  O. Vydrov,  M. A. Watson,  J. Wenzel,  M. de Wergifosse,  
 T. A. Wesolowski,  A. White,  J. Witte,  A. Yamada,  Jun Yang,  K. Yao,  
 S. Yeganeh,  S. R. Yost,  Zhi-Qiang You,  A. Zech,  Igor Ying Zhang,  
 Xing Zhang,  Yan Zhao,  Ying Zhu,  B. R. Brooks,  G. K. L. Chan,  
 C. J. Cramer,  M. S. Gordon,  W. J. Hehre,  A. Klamt,  M. W. Schmidt,  
 C. D. Sherrill,  D. G. Truhlar,  A. Aspuru-Guzik,  R. Baer,  A. T. Bell,  
 N. A. Besley,  Jeng-Da Chai,  A. E. DePrince, III,  R. A. DiStasio Jr.,  
 A. Dreuw,  B. D. Dunietz,  T. R. Furlani,  Chao-Ping Hsu,  Yousung Jung,  
 Jing Kong,  D. S. Lambrecht,  WanZhen Liang,  C. Ochsenfeld,  
 V. A. Rassolov,  L. V. Slipchenko,  J. E. Subotnik,  T. Van Voorhis,  
 J. M. Herbert,  A. I. Krylov,  P. M. W. Gill,  M. Head-Gordon

 Contributors to earlier versions of Q-Chem not listed above: 
 R. D. Adamson,  B. Austin,  J. Baker,  G. J. O. Beran,  K. Brandhorst,  
 S. T. Brown,  E. F. C. Byrd,  A. K. Chakraborty,  C.-L. Cheng,  
 Siu Hung Chien,  D. M. Chipman,  D. L. Crittenden,  H. Dachsel,  
 R. J. Doerksen,  A. D. Dutoi,  L. Fusti-Molnar,  W. A. Goddard III,  
 A. Golubeva-Zadorozhnaya,  S. R. Gwaltney,  G. Hawkins,  A. Heyden,  
 S. Hirata,  G. Kedziora,  F. J. Keil,  C. Kelley,  Jihan Kim,  R. A. King,  
 R. Z. Khaliullin,  P. P. Korambath,  W. Kurlancheek,  A. M. Lee,  M. S. Lee,  
 S. V. Levchenko,  Ching Yeh Lin,  D. Liotard,  R. C. Lochan,  I. Lotan,  
 P. E. Maslen,  N. Nair,  D. P. O'Neill,  D. Neuhauser,  E. Neuscamman,  
 C. M. Oana,  R. Olson,  B. Peters,  R. Peverati,  P. A. Pieniazek,  
 Y. M. Rhee,  J. Ritchie,  M. A. Rohrdanz,  E. Rosta,  N. J. Russ,  
 H. F. Schaefer III,  N. E. Schultz,  N. Shenvi,  A. C. Simmonett,  A. Sodt,  
 D. Stuck,  K. S. Thanthiriwatte,  V. Vanovschi,  Tao Wang,  A. Warshel,  
 C. F. Williams,  Q. Wu,  X. Xu,  W. Zhang

 Please cite Q-Chem as follows:
 Y. Shao et al., Mol. Phys. 113, 184-215 (2015)
 DOI: 10.1080/00268976.2014.952696

 Q-Chem 5.3.0 for Intel X86 EM64T Linux

 Parts of Q-Chem use Armadillo 9.800.1 (Horizon Scraper).
 http://arma.sourceforge.net/

 Q-Chem begins on Mon Jul 13 15:35:52 2020  

Host: centos77-c5
0

     Scratch files written to /tmp/29025.centos77-h1/qchem57528//
Processing $rem in /opt/qchem-5.3.0-intel2020u1//config/preferences:
Processing $rem in /home/shihchengli/.qchemrc:

Checking the input file for inconsistencies... 	...done.

--------------------------------------------------------------
User input:
--------------------------------------------------------------
$rem
   JOBTYPE  sp
   EXCHANGE   omegaB97X-D
   BASIS   6-311+G(2df,2pd)
   UNRESTRICTED   True
   max_scf_cycles   250
   geom_opt_max_cycles   1500
   basis2 6-31G*
   scf_algorithm rca_diis
   SYM_IGNORE  TRUE
   print_input   true
   geom_opt_dmax   80
   pop_mulliken false
   XC_GRID 000075000302
$end

$molecule
0 3
N       0.6543515908     1.3254095570     2.4279771016
O       0.5002064568     2.3773228062     1.9279214416
O       1.5517254861     0.9973980492     3.0915061176
N       0.1030561654     -1.3406934504     3.1745989086
O       -0.5492679994     -1.2286010170     4.1571506732
O       -0.3150805696     -0.0358468352     2.3211456474
$end
--------------------------------------------------------------
 ----------------------------------------------------------------
             Standard Nuclear Orientation (Angstroms)
    I     Atom           X                Y                Z
 ----------------------------------------------------------------
    1      N       0.6543515908     1.3254095570     2.4279771016
    2      O       0.5002064568     2.3773228062     1.9279214416
    3      O       1.5517254861     0.9973980492     3.0915061176
    4      N       0.1030561654    -1.3406934504     3.1745989086
    5      O      -0.5492679994    -1.2286010170     4.1571506732
    6      O      -0.3150805696    -0.0358468352     2.3211456474
 ----------------------------------------------------------------
 Nuclear Repulsion Energy =         226.05537965 hartrees
 There are       24 alpha and       22 beta electrons
 Requested basis set is 6-311+G(2df,2pd)
 There are 48 shells and 204 basis functions

 Total QAlloc Memory Limit   2000 MB
 Mega-Array Size       188 MB
 MEM_STATIC part       192 MB

                       Distance Matrix (Angstroms)
             N (  1)   O (  2)   O (  3)   N (  4)   O (  5)
   O (  2)  1.174878
   O (  3)  1.163246  2.088974
   N (  4)  2.823026  3.941520  2.751767
   O (  5)  3.310848  4.367327  3.241118  1.184694
   O (  6)  1.674584  2.577345  2.268483  1.614263  2.201913
 
 A cutoff of  1.0D-09 yielded   1012 shell pairs
 There are     18885 function pairs (     24745 Cartesian)
 Smallest overlap matrix eigenvalue = 7.35E-04

 Scale SEOQF with 1.000000e-01/1.000000e-01/1.000000e-01

 Standard Electronic Orientation quadrupole field applied
 Nucleus-field energy     =    -0.0000000354 hartrees
 Requested basis set is 6-31G(d)
 There are 24 shells and 84 basis functions
 A cutoff of  1.0D-09 yielded    263 shell pairs
 There are      3452 function pairs (      3961 Cartesian)
 Smallest overlap matrix eigenvalue = 5.55E-03
 Guess from superposition of atomic densities
 Warning:  Energy on first SCF cycle will be non-variational
 SAD guess density has 46.000000 electrons
 Long-range K will be added via erf
 Coulomb attenuation parameter = 0.2 bohr**(-1)
 An unrestricted hybrid HF-DFT SCF calculation will be
 performed using Relaxed Constraint Minimization + Pulay DIIS
 Exchange:     0.2220 Hartree-Fock + 1.0000 wB97X-D + LR-HF
 Correlation:  1.0000 wB97X-D
 Using Euler-Maclaurin-Lebedev (75,302) quadrature formula
 Dispersion:   Grimme D
 SCF converges when DIIS error is below 1.0E-04
 using 6 threads for integral computing
 -------------------------------------------------------
 OpenMP Integral computing Module                
 Release: version 1.0, May 2013, Q-Chem Inc. Pittsburgh 
 -------------------------------------------------------
 using 6 threads for integral computing
 -------------------------------------------------------
 OpenMP Integral computing Module                
 Release: version 1.0, May 2013, Q-Chem Inc. Pittsburgh 
 -------------------------------------------------------
 ---------------------------------------
  Cycle       Energy         DIIS Error
 ---------------------------------------
    1    -410.8397547622      8.63E-02
    2    -409.6403888145      1.82E-02
    3    -409.7379871067      3.52E-03
    4    -409.8731110614      3.19E-03
    5    -409.8763296774      5.56E-04 Done RCA. Switching to DIIS
    6    -409.8813628204      3.50E-04
    7    -409.8817891319      1.68E-04
    8    -409.8820051435      1.08E-04
    9    -409.8821370306      5.63E-05 Convergence criterion met
 ---------------------------------------
 <S^2> = 2.0240
 SCF time:  CPU 15.23 s  wall 2.55 s
 SCF   energy in the small basis set = -409.88213703
 Total energy in the small basis set = -409.88213703
 ----------------------------------------------------
  Cycle       Energy    
 ----------------------------------------------------
    1     -41.6967537394     -4.17E+01
 Long-range K will be added via erf
 Coulomb attenuation parameter = 0.2 bohr**(-1)
 An unrestricted hybrid HF-DFT SCF calculation will be
 performed using Relaxed Constraint Minimization + Pulay DIIS
 Exchange:     0.2220 Hartree-Fock + 1.0000 wB97X-D + LR-HF
 Correlation:  1.0000 wB97X-D
 Using Euler-Maclaurin-Lebedev (75,302) quadrature formula
 Dispersion:   Grimme D
 SCF converges when DIIS error is below 1.0E-05
 Basis2 calculation detected. Using small basis as guess for larger.
 SCFMinFind is unable to tell whether the solution found is close.
 Resetting ReadMinima to 0 and attempting to follow guess.
 SCFMinFind following SCF Guess.
 using 6 threads for integral computing
 -------------------------------------------------------
 OpenMP Integral computing Module                
 Release: version 1.0, May 2013, Q-Chem Inc. Pittsburgh 
 -------------------------------------------------------
 using 6 threads for integral computing
 -------------------------------------------------------
 OpenMP Integral computing Module                
 Release: version 1.0, May 2013, Q-Chem Inc. Pittsburgh 
 -------------------------------------------------------
 ---------------------------------------
  Cycle       Energy         DIIS Error
 ---------------------------------------
    1    -409.9668620924      8.05E-03
    2    -409.9751163161      4.29E-03
    3    -409.9988039608      1.05E-03
    4    -410.0319332682      1.16E-03
    5    -410.0340689484      1.70E-04 Done RCA. Switching to DIIS
    6    -410.0374084300      1.75E-04
    7    -410.0378523234      4.96E-05
    8    -410.0379786849      3.95E-05
    9    -410.0380749867      1.82E-05
   10    -410.0381216506      1.34E-05
   11    -410.0381435860      7.37E-06 Convergence criterion met
 ---------------------------------------
 <S^2> = 2.0254
 SCF time:  CPU 66.49 s  wall 11.11 s
 SCF   energy in the final basis set = -410.03814359
 Total energy in the final basis set = -410.03814359
 
 --------------------------------------------------------------
 
                    Orbital Energies (a.u.)
 --------------------------------------------------------------
 
 Alpha MOs
 -- Occupied --
-19.4069 -19.3845 -19.3697 -19.3468 -14.7564 -14.6153  -1.4433  -1.3680
 -1.2636  -1.1442  -0.8503  -0.7792  -0.7170  -0.7088  -0.6764  -0.6567
 -0.6373  -0.6246  -0.4916  -0.4752  -0.4638  -0.4585  -0.4423  -0.3346
 -- Virtual --
 -0.0571  -0.0214   0.0483   0.0994   0.1222   0.1356   0.1414   0.1669
  0.1742   0.1815   0.2276   0.2400   0.2484   0.2724   0.2789   0.2814
  0.3064   0.3349   0.3425   0.3462   0.3564   0.3652   0.3690   0.3925
  0.4080   0.4358   0.4411   0.4515   0.4945   0.5343   0.7479   0.7719
  0.7990   0.8192   0.8450   0.9231   0.9308   0.9386   0.9612   1.0134
  1.0302   1.0450   1.0531   1.0704   1.0821   1.0961   1.1104   1.1309
  1.1310   1.1482   1.1631   1.1733   1.2226   1.2539   1.2846   1.3462
  1.3764   1.4543   1.5120   1.5353   1.5475   1.5822   1.5936   1.6073
  1.6460   1.6638   1.7063   1.7809   1.8157   1.8600   1.8858   1.9346
  1.9593   2.1131   2.1513   2.1983   2.2600   2.3256   2.3752   2.4804
  2.4995   2.5507   2.5943   2.7411   3.4790   3.5476   3.5828   3.6079
  3.6431   3.6669   3.6869   3.7169   3.7682   3.7802   3.8089   3.8782
  3.9257   3.9398   3.9867   4.0255   4.1041   4.4475   4.4519   4.4738
  4.5246   4.5631   4.6405   4.6476   4.6607   4.6946   4.7533   4.8186
  4.8678   4.9408   4.9980   5.0027   5.0153   5.0258   5.0353   5.0367
  5.0489   5.0669   5.0742   5.1008   5.1143   5.1377   5.1501   5.1739
  5.1978   5.2542   5.2867   5.3307   5.3490   5.3952   5.4148   5.4515
  5.4818   5.5970   5.6302   5.6805   5.7050   5.7394   5.9525   6.0079
  6.0981   6.3159   6.5807   6.6311   6.6554   6.7113   6.7316   6.7617
  6.7920   6.7994   6.8593   6.8684   6.9014   7.0033   7.0700   7.1200
  7.1458   7.1816   7.1883   7.2099   7.2339   7.3615   7.4383   7.5429
  7.5949   7.6461   7.6632   7.7895   7.8458   8.1973  35.9007  36.1979
 49.9752  50.1285  50.2378  50.2628
 
 Beta MOs
 -- Occupied --
-19.3860 -19.3718 -19.3681 -19.3470 -14.7547 -14.6019  -1.4406  -1.3271
 -1.2611  -1.1019  -0.8113  -0.7498  -0.7067  -0.7038  -0.6727  -0.5949
 -0.5786  -0.5630  -0.4717  -0.4605  -0.4455  -0.4336
 -- Virtual --
 -0.1551  -0.0555  -0.0187   0.0119   0.0883   0.1038   0.1267   0.1403
  0.1473   0.1686   0.1782   0.1860   0.2293   0.2427   0.2521   0.2742
  0.2821   0.2846   0.3131   0.3356   0.3447   0.3489   0.3588   0.3692
  0.3729   0.3992   0.4180   0.4400   0.4469   0.4535   0.5079   0.5388
  0.7531   0.7804   0.8126   0.8322   0.8587   0.9304   0.9354   0.9418
  0.9724   1.0226   1.0379   1.0591   1.0650   1.0815   1.0918   1.1094
  1.1202   1.1359   1.1476   1.1576   1.1800   1.1847   1.2374   1.2656
  1.2944   1.3569   1.3948   1.4643   1.5242   1.5444   1.5540   1.5896
  1.6036   1.6259   1.6702   1.6740   1.7253   1.7988   1.8215   1.8724
  1.8882   1.9549   1.9742   2.1300   2.1617   2.2151   2.2726   2.3305
  2.3891   2.4933   2.5111   2.5529   2.5982   2.7459   3.4903   3.5710
  3.6000   3.6273   3.6648   3.6705   3.7029   3.7213   3.7932   3.8128
  3.8435   3.8927   3.9432   3.9698   4.0021   4.0273   4.1115   4.4507
  4.4559   4.4769   4.5293   4.5884   4.6500   4.6608   4.6824   4.7439
  4.7814   4.8425   4.9055   4.9903   5.0214   5.0290   5.0326   5.0443
  5.0500   5.0550   5.0706   5.0779   5.1006   5.1201   5.1319   5.1557
  5.1815   5.1919   5.2152   5.2825   5.3106   5.3448   5.3668   5.3999
  5.4199   5.4657   5.5140   5.6270   5.6501   5.6859   5.7087   5.7714
  5.9629   6.0180   6.1360   6.3198   6.6214   6.6332   6.6955   6.7661
  6.7854   6.7943   6.8057   6.8094   6.8614   6.8757   6.9279   7.0302
  7.0953   7.1284   7.1838   7.1883   7.2219   7.2302   7.2400   7.3872
  7.4455   7.5577   7.6079   7.6685   7.6898   7.8099   7.8481   8.2004
 35.9168  36.2000  49.9894  50.1484  50.2394  50.2628
 --------------------------------------------------------------
 
 -----------------------------------------------------------------
                    Cartesian Multipole Moments
 -----------------------------------------------------------------
    Charge (ESU x 10^10)
                 0.0000
    Dipole Moment (Debye)
         X      -0.1239      Y      -0.2684      Z       0.1394
       Tot       0.3268
    Quadrupole Moments (Debye-Ang)
        XX     -33.1328     XY      -0.3713     YY     -32.0105
        XZ      -1.3284     YZ      -0.5393     ZZ     -31.0983
    Octopole Moments (Debye-Ang^2)
       XXX     -32.8628    XXY     -11.9104    XYY     -11.2239
       YYY     -39.5869    XXZ     -96.0431    XYZ      -2.2506
       YYZ     -87.1978    XZZ     -15.5814    YZZ     -11.8219
       ZZZ    -269.1010
    Hexadecapole Moments (Debye-Ang^3)
      XXXX    -138.7756   XXXY     -66.9682   XXYY     -89.6381
      XYYY     -66.2743   YYYY    -400.2707   XXXZ     -82.6959
      XXYZ     -11.9089   XYYZ     -27.5678   YYYZ     -37.0328
      XXZZ    -320.1377   XYZZ     -31.2571   YYZZ    -324.6674
      XZZZ     -91.0088   YZZZ     -22.9025   ZZZZ   -1663.7356
 -----------------------------------------------------------------
Archival summary:
1\1\centos77-c5\SP\ProcedureUnspecified\BasisUnspecified\42(3)\shihchen\MonJul1315:36:082020MonJul1315:36:082020\0\\#,ProcedureUnspecified,BasisUnspecified,\\0,3\N\O,1,1.16325\O,1,1.17488,2,126.617\O,1,1.67458,2,104.7,3,178.406,0\N,4,1.61426,1,118.255,2,4.43884,0\O,5,1.18469,4,102.672,1,95.682,0\\\@

 Total job time:  15.88s(wall), 85.77s(cpu) 
 Mon Jul 13 15:36:08 2020

        *************************************************************
        *                                                           *
        *  Thank you very much for using Q-Chem.  Have a nice day.  *
        *                                                           *
        *************************************************************


