                  Welcome to Q-Chem
     A Quantum Leap Into The Future Of Chemistry


 Q-Chem 5.3 (devel), Q-Chem, Inc., Pleasanton, CA (2020)

 Yihan Shao,  Zhengting Gan,  E. Epifanovsky,  A. T. B. Gilbert,  M. Wormit,  
 J. Kussmann,  A. W. Lange,  A. Behn,  Jia Deng,  Xintian Feng,  D. Ghosh,  
 M. Goldey,  P. R. Horn,  L. D. Jacobson,  I. Kaliman,  T. Kus,  A. Landau,  
 Jie Liu,  E. I. Proynov,  R. M. Richard,  R. P. Steele,  E. J. Sundstrom,  
 H. L. Woodcock III,  P. M. Zimmerman,  D. Zuev,  B. Alam,  B. Albrecht,  
 E. Alguire,  S. A. Baeppler,  D. Barton,  Z. Benda,  Y. A. Bernard,  
 E. J. Berquist,  K. B. Bravaya,  H. Burton,  K. Carter-Fenk,  D. Casanova,  
 Chun-Min Chang,  Yunqing Chen,  A. Chien,  K. D. Closser,  M. P. Coons,  
 S. Coriani,  S. Dasgupta,  A. L. Dempwolff,  M. Diedenhofen,  Hainam Do,  
 R. G. Edgar,  Po-Tung Fang,  S. Faraji,  S. Fatehi,  Qingguo Feng,  
 J. Fosso-Tande,  J. Gayvert,  Qinghui Ge,  A. Ghysels,  G. Gidofalvi,  
 J. Gomes,  J. Gonthier,  A. Gunina,  D. Hait,  M. W. D. Hanson-Heine,  
 P. H. P. Harbach,  A. W. Hauser,  M. F. Herbst,  J. E. Herr,  
 E. G. Hohenstein,  Z. C. Holden,  Kerwin Hui,  B. C. Huynh,  T.-C. Jagau,  
 Hyunjun Ji,  B. Kaduk,  K. Khistyaev,  Jaehoon Kim,  P. Klunzinger,  K. Koh,  
 D. Kosenkov,  L. Koulias,  T. Kowalczyk,  C. M. Krauter,  A. Kunitsa,  
 Ka Un Lao,  A. Laurent,  K. V. Lawler,  Joonho Lee,  D. Lefrancois,  
 S. Lehtola,  D. S. Levine,  Yi-Pei Li,  You-Sheng Lin,  Fenglai Liu,  
 Kuan-Yu Liu,  E. Livshits,  M. Loipersberger,  A. Luenser,  P. Manohar,  
 E. Mansoor,  S. F. Manzer,  Shan-Ping Mao,  Yuezhi Mao,  N. Mardirossian,  
 A. V. Marenich,  T. Markovich,  L. A. Martinez-Martinez,  S. A. Maurer,  
 N. J. Mayhall,  S. C. McKenzie,  J.-M. Mewes,  P. Morgante,  A. F. Morrison,  
 J. W. Mullinax,  K. Nanda,  T. S. Nguyen-Beck,  R. Olivares-Amaya,  
 K. J. Oosterbaan,  J. A. Parkhill,  S. K. Paul,  F. Pavosevic,  Zheng Pei,  
 T. M. Perrine,  F. Plasser,  P. Pokhilko,  S. Prager,  A. Prociuk,  
 E. Ramos,  B. Rana,  D. R. Rehn,  F. Rob,  M. Scheurer,  M. Schneider,  
 N. Sergueev,  S. M. Sharada,  S. Sharma,  D. W. Small,  T. Stauch,  
 C. J. Stein,  T. Stein,  Yu-Chuan Su,  S. P. Veccham,  Zhen Tao,  
 A. J. W. Thom,  A. Tkatchenko,  T. Tsuchimochi,  N. M. Tubman,  L. Vogt,  
 M. L. Vidal,  O. Vydrov,  M. A. Watson,  J. Wenzel,  M. de Wergifosse,  
 T. A. Wesolowski,  A. White,  J. Witte,  A. Yamada,  Jun Yang,  K. Yao,  
 S. Yeganeh,  S. R. Yost,  Zhi-Qiang You,  A. Zech,  Igor Ying Zhang,  
 Xing Zhang,  Yan Zhao,  Ying Zhu,  B. R. Brooks,  G. K. L. Chan,  
 C. J. Cramer,  M. S. Gordon,  W. J. Hehre,  A. Klamt,  M. W. Schmidt,  
 C. D. Sherrill,  D. G. Truhlar,  A. Aspuru-Guzik,  R. Baer,  A. T. Bell,  
 N. A. Besley,  Jeng-Da Chai,  A. E. DePrince, III,  R. A. DiStasio Jr.,  
 A. Dreuw,  B. D. Dunietz,  T. R. Furlani,  Chao-Ping Hsu,  Yousung Jung,  
 Jing Kong,  D. S. Lambrecht,  WanZhen Liang,  C. Ochsenfeld,  
 V. A. Rassolov,  L. V. Slipchenko,  J. E. Subotnik,  T. Van Voorhis,  
 J. M. Herbert,  A. I. Krylov,  P. M. W. Gill,  M. Head-Gordon

 Contributors to earlier versions of Q-Chem not listed above: 
 R. D. Adamson,  B. Austin,  J. Baker,  G. J. O. Beran,  K. Brandhorst,  
 S. T. Brown,  E. F. C. Byrd,  A. K. Chakraborty,  C.-L. Cheng,  
 Siu Hung Chien,  D. M. Chipman,  D. L. Crittenden,  H. Dachsel,  
 R. J. Doerksen,  A. D. Dutoi,  L. Fusti-Molnar,  W. A. Goddard III,  
 A. Golubeva-Zadorozhnaya,  S. R. Gwaltney,  G. Hawkins,  A. Heyden,  
 S. Hirata,  G. Kedziora,  F. J. Keil,  C. Kelley,  Jihan Kim,  R. A. King,  
 R. Z. Khaliullin,  P. P. Korambath,  W. Kurlancheek,  A. M. Lee,  M. S. Lee,  
 S. V. Levchenko,  Ching Yeh Lin,  D. Liotard,  R. C. Lochan,  I. Lotan,  
 P. E. Maslen,  N. Nair,  D. P. O'Neill,  D. Neuhauser,  E. Neuscamman,  
 C. M. Oana,  R. Olson,  B. Peters,  R. Peverati,  P. A. Pieniazek,  
 Y. M. Rhee,  J. Ritchie,  M. A. Rohrdanz,  E. Rosta,  N. J. Russ,  
 H. F. Schaefer III,  N. E. Schultz,  N. Shenvi,  A. C. Simmonett,  A. Sodt,  
 D. Stuck,  K. S. Thanthiriwatte,  V. Vanovschi,  Tao Wang,  A. Warshel,  
 C. F. Williams,  Q. Wu,  X. Xu,  W. Zhang

 Please cite Q-Chem as follows:
 Y. Shao et al., Mol. Phys. 113, 184-215 (2015)
 DOI: 10.1080/00268976.2014.952696

 Q-Chem 5.3.0 for Intel X86 EM64T Linux

 Parts of Q-Chem use Armadillo 9.800.1 (Horizon Scraper).
 http://arma.sourceforge.net/

 Q-Chem begins on Mon Jul 13 15:34:20 2020  

Host: centos77-c5
0

     Scratch files written to /tmp/29025.centos77-h1/qchem30295//
Processing $rem in /opt/qchem-5.3.0-intel2020u1//config/preferences:
Processing $rem in /home/shihchengli/.qchemrc:

Checking the input file for inconsistencies... 	...done.

--------------------------------------------------------------
User input:
--------------------------------------------------------------
$rem
   JOBTYPE  sp
   EXCHANGE   omegaB97X-D
   BASIS   6-311+G(2df,2pd)
   UNRESTRICTED   True
   max_scf_cycles   250
   geom_opt_max_cycles   1500
   basis2 6-31G*
   scf_algorithm rca_diis
   SYM_IGNORE  TRUE
   print_input   true
   geom_opt_dmax   80
   pop_mulliken false
   XC_GRID 000075000302
$end

$molecule
0 3
N       0.6665502594     1.2415201979     2.5011685061
O       0.3837454238     2.2101613057     1.8739405454
O       1.6263575359     0.9845042882     3.1443160966
N       0.0594743115     -1.1756711753     3.1604392719
O       -0.5233525169     -1.3150542672     4.1683252639
O       -0.2677838837     0.1495287606     2.2521102061
$end
--------------------------------------------------------------
 ----------------------------------------------------------------
             Standard Nuclear Orientation (Angstroms)
    I     Atom           X                Y                Z
 ----------------------------------------------------------------
    1      N       0.6665502594     1.2415201979     2.5011685061
    2      O       0.3837454238     2.2101613057     1.8739405454
    3      O       1.6263575359     0.9845042882     3.1443160966
    4      N       0.0594743115    -1.1756711753     3.1604392719
    5      O      -0.5233525169    -1.3150542672     4.1683252639
    6      O      -0.2677838837     0.1495287606     2.2521102061
 ----------------------------------------------------------------
 Nuclear Repulsion Energy =         230.21399079 hartrees
 There are       24 alpha and       22 beta electrons
 Requested basis set is 6-311+G(2df,2pd)
 There are 48 shells and 204 basis functions

 Total QAlloc Memory Limit   2000 MB
 Mega-Array Size       188 MB
 MEM_STATIC part       192 MB

                       Distance Matrix (Angstroms)
             N (  1)   O (  2)   O (  3)   N (  4)   O (  5)
   O (  2)  1.188133
   O (  3)  1.183607  2.158744
   N (  4)  2.577982  3.636495  2.668659
   O (  5)  3.275874  4.302810  3.310259  1.172582
   O (  6)  1.458580  2.194017  2.254105  1.639608  2.425324
 
 A cutoff of  1.0D-09 yielded   1022 shell pairs
 There are     19059 function pairs (     24989 Cartesian)
 Smallest overlap matrix eigenvalue = 6.90E-04

 Scale SEOQF with 1.000000e-01/1.000000e-01/1.000000e-01

 Standard Electronic Orientation quadrupole field applied
 Nucleus-field energy     =    -0.0000000361 hartrees
 Requested basis set is 6-31G(d)
 There are 24 shells and 84 basis functions
 A cutoff of  1.0D-09 yielded    266 shell pairs
 There are      3498 function pairs (      4022 Cartesian)
 Smallest overlap matrix eigenvalue = 5.21E-03
 Guess from superposition of atomic densities
 Warning:  Energy on first SCF cycle will be non-variational
 SAD guess density has 46.000000 electrons
 Long-range K will be added via erf
 Coulomb attenuation parameter = 0.2 bohr**(-1)
 An unrestricted hybrid HF-DFT SCF calculation will be
 performed using Relaxed Constraint Minimization + Pulay DIIS
 Exchange:     0.2220 Hartree-Fock + 1.0000 wB97X-D + LR-HF
 Correlation:  1.0000 wB97X-D
 Using Euler-Maclaurin-Lebedev (75,302) quadrature formula
 Dispersion:   Grimme D
 SCF converges when DIIS error is below 1.0E-04
 using 6 threads for integral computing
 -------------------------------------------------------
 OpenMP Integral computing Module                
 Release: version 1.0, May 2013, Q-Chem Inc. Pittsburgh 
 -------------------------------------------------------
 using 6 threads for integral computing
 -------------------------------------------------------
 OpenMP Integral computing Module                
 Release: version 1.0, May 2013, Q-Chem Inc. Pittsburgh 
 -------------------------------------------------------
 ---------------------------------------
  Cycle       Energy         DIIS Error
 ---------------------------------------
    1    -410.9726554663      8.74E-02
    2    -409.6576984468      1.94E-02
    3    -409.7613632301      4.36E-03
    4    -409.9088506723      4.63E-03
    5    -409.9149590357      6.62E-04 Done RCA. Switching to DIIS
    6    -409.9232183369      5.86E-04
    7    -409.9236713259      8.83E-05 Convergence criterion met
 ---------------------------------------
 <S^2> = 2.0158
 SCF time:  CPU 13.00 s  wall 2.18 s
 SCF   energy in the small basis set = -409.92367133
 Total energy in the small basis set = -409.92367133
 ----------------------------------------------------
  Cycle       Energy    
 ----------------------------------------------------
    1     -41.7371346905     -4.17E+01
 Long-range K will be added via erf
 Coulomb attenuation parameter = 0.2 bohr**(-1)
 An unrestricted hybrid HF-DFT SCF calculation will be
 performed using Relaxed Constraint Minimization + Pulay DIIS
 Exchange:     0.2220 Hartree-Fock + 1.0000 wB97X-D + LR-HF
 Correlation:  1.0000 wB97X-D
 Using Euler-Maclaurin-Lebedev (75,302) quadrature formula
 Dispersion:   Grimme D
 SCF converges when DIIS error is below 1.0E-05
 Basis2 calculation detected. Using small basis as guess for larger.
 SCFMinFind is unable to tell whether the solution found is close.
 Resetting ReadMinima to 0 and attempting to follow guess.
 SCFMinFind following SCF Guess.
 using 6 threads for integral computing
 -------------------------------------------------------
 OpenMP Integral computing Module                
 Release: version 1.0, May 2013, Q-Chem Inc. Pittsburgh 
 -------------------------------------------------------
 using 6 threads for integral computing
 -------------------------------------------------------
 OpenMP Integral computing Module                
 Release: version 1.0, May 2013, Q-Chem Inc. Pittsburgh 
 -------------------------------------------------------
 ---------------------------------------
  Cycle       Energy         DIIS Error
 ---------------------------------------
    1    -410.0117385054      8.03E-03
    2    -410.0204123871      4.21E-03
    3    -410.0422302707      1.14E-03
    4    -410.0731182830      1.23E-03
    5    -410.0753479033      1.94E-04 Done RCA. Switching to DIIS
    6    -410.0785499411      2.06E-04
    7    -410.0787699252      5.30E-05
    8    -410.0788445426      2.28E-05
    9    -410.0788700110      1.09E-05
   10    -410.0788781076      5.08E-06 Convergence criterion met
 ---------------------------------------
 <S^2> = 2.0189
 SCF time:  CPU 64.50 s  wall 10.78 s
 SCF   energy in the final basis set = -410.07887811
 Total energy in the final basis set = -410.07887811
 
 --------------------------------------------------------------
 
                    Orbital Energies (a.u.)
 --------------------------------------------------------------
 
 Alpha MOs
 -- Occupied --
-19.4092 -19.4004 -19.3541 -19.3481 -14.7720 -14.6214  -1.4404  -1.3675
 -1.2580  -1.1987  -0.8715  -0.7775  -0.7204  -0.7137  -0.6834  -0.6559
 -0.6335  -0.6322  -0.4993  -0.4938  -0.4655  -0.4609  -0.4417  -0.3414
 -- Virtual --
 -0.0281   0.0083   0.0697   0.1094   0.1199   0.1345   0.1385   0.1702
  0.1777   0.1847   0.2272   0.2412   0.2489   0.2672   0.2738   0.2884
  0.3048   0.3280   0.3431   0.3469   0.3509   0.3620   0.3660   0.3900
  0.3986   0.4327   0.4427   0.4554   0.4923   0.5202   0.7323   0.7747
  0.8036   0.8244   0.8571   0.8742   0.9373   0.9542   0.9693   1.0151
  1.0217   1.0415   1.0520   1.0715   1.0834   1.0948   1.1237   1.1258
  1.1414   1.1561   1.1589   1.1704   1.2171   1.2464   1.2747   1.3231
  1.4414   1.4495   1.5156   1.5422   1.5700   1.5954   1.6004   1.6339
  1.6486   1.6797   1.7036   1.7838   1.8139   1.8652   1.8881   1.9282
  1.9932   2.1199   2.1812   2.2338   2.3251   2.3634   2.4201   2.4922
  2.5366   2.5591   2.6698   2.7903   3.4939   3.5411   3.5718   3.6247
  3.6319   3.6663   3.6848   3.6898   3.7569   3.7718   3.7927   3.8945
  3.9449   3.9751   4.0223   4.0477   4.0763   4.4270   4.4581   4.4823
  4.5046   4.5956   4.6495   4.6559   4.6777   4.7323   4.7424   4.7801
  4.8217   4.9158   4.9939   5.0018   5.0207   5.0284   5.0406   5.0458
  5.0573   5.0786   5.0830   5.1030   5.1265   5.1441   5.1598   5.1655
  5.1957   5.2643   5.3145   5.3725   5.4020   5.4183   5.4695   5.5016
  5.5247   5.5439   5.6284   5.6609   5.7799   5.8190   5.9688   6.1134
  6.2662   6.5480   6.5897   6.6352   6.6784   6.7251   6.7421   6.7673
  6.7933   6.8253   6.8750   6.8938   6.9415   6.9875   7.0609   7.0921
  7.1563   7.1757   7.2028   7.2587   7.2994   7.3462   7.4473   7.5598
  7.6427   7.6865   7.7795   7.8330   7.8878   8.2451  35.9040  36.1121
 49.9797  50.1575  50.2300  50.2531
 
 Beta MOs
 -- Occupied --
-19.3962 -19.3821 -19.3523 -19.3484 -14.7716 -14.6036  -1.4367  -1.3288
 -1.2560  -1.1636  -0.8286  -0.7452  -0.7129  -0.7040  -0.6729  -0.6022
 -0.5822  -0.5583  -0.4751  -0.4688  -0.4643  -0.4480
 -- Virtual --
 -0.1530  -0.0274  -0.0109   0.0575   0.0856   0.1222   0.1246   0.1390
  0.1425   0.1718   0.1811   0.1891   0.2284   0.2452   0.2520   0.2685
  0.2771   0.2905   0.3123   0.3294   0.3448   0.3482   0.3530   0.3632
  0.3688   0.3989   0.4073   0.4368   0.4460   0.4602   0.5100   0.5250
  0.7426   0.7819   0.8179   0.8449   0.8688   0.8798   0.9411   0.9591
  0.9801   1.0234   1.0318   1.0512   1.0668   1.0884   1.0954   1.1026
  1.1344   1.1422   1.1501   1.1605   1.1761   1.1807   1.2279   1.2585
  1.2888   1.3372   1.4517   1.4651   1.5211   1.5457   1.5749   1.6052
  1.6193   1.6531   1.6723   1.7017   1.7130   1.7878   1.8201   1.8730
  1.9023   1.9434   2.0059   2.1343   2.1938   2.2459   2.3389   2.3720
  2.4362   2.5064   2.5386   2.5654   2.6785   2.7940   3.5169   3.5751
  3.5885   3.6393   3.6512   3.6693   3.6959   3.7064   3.7695   3.8015
  3.8574   3.9122   3.9709   3.9943   4.0256   4.0632   4.0911   4.4292
  4.4626   4.4859   4.5076   4.6251   4.6538   4.6954   4.7149   4.7474
  4.7717   4.8142   4.8647   4.9657   5.0131   5.0212   5.0425   5.0459
  5.0537   5.0636   5.0719   5.0862   5.1024   5.1264   5.1357   5.1681
  5.1885   5.1985   5.2073   5.2931   5.3322   5.3836   5.4113   5.4327
  5.4814   5.5172   5.5469   5.5645   5.6483   5.6800   5.7880   5.8249
  5.9846   6.1511   6.2751   6.5504   6.6037   6.6798   6.7115   6.7689
  6.7926   6.7980   6.8076   6.8311   6.8777   6.8965   6.9728   7.0011
  7.0782   7.1120   7.1697   7.2014   7.2323   7.2666   7.3253   7.3524
  7.4725   7.5661   7.6711   7.7147   7.7902   7.8548   7.8924   8.2471
 35.9254  36.1126  49.9938  50.1747  50.2317  50.2531
 --------------------------------------------------------------
 
 -----------------------------------------------------------------
                    Cartesian Multipole Moments
 -----------------------------------------------------------------
    Charge (ESU x 10^10)
                -0.0000
    Dipole Moment (Debye)
         X      -0.2570      Y      -0.6837      Z       0.1609
       Tot       0.7479
    Quadrupole Moments (Debye-Ang)
        XX     -33.2211     XY      -0.9596     YY     -33.1594
        XZ      -1.7661     YZ      -0.6971     ZZ     -31.5850
    Octopole Moments (Debye-Ang^2)
       XXX     -33.9327    XXY     -12.9204    XYY     -11.2813
       YYY     -41.1476    XXZ     -96.3253    XYZ      -4.1252
       YYZ     -90.8231    XZZ     -17.1801    YZZ      -9.6321
       ZZZ    -273.8392
    Hexadecapole Moments (Debye-Ang^3)
      XXXX    -142.5763   XXXY     -64.0441   XXYY     -85.2484
      XYYY     -65.6037   YYYY    -369.3268   XXXZ     -89.5334
      XXYZ     -14.7191   XYYZ     -28.0119   YYYZ     -39.5754
      XXZZ    -322.7081   XYZZ     -36.2392   YYZZ    -332.5217
      XZZZ    -100.8075   YZZZ      -9.3114   ZZZZ   -1698.1662
 -----------------------------------------------------------------
Archival summary:
1\1\centos77-c5\SP\ProcedureUnspecified\BasisUnspecified\42(3)\shihchen\MonJul1315:34:352020MonJul1315:34:352020\0\\#,ProcedureUnspecified,BasisUnspecified,\\0,3\N\O,1,1.18361\O,1,1.18813,2,131.064\O,1,1.45858,2,116.722,3,169.962,0\N,4,1.63961,1,112.498,2,10.8529,0\O,5,1.17258,4,118.232,1,95.6124,0\\\@

 Total job time:  15.35s(wall), 81.86s(cpu) 
 Mon Jul 13 15:34:35 2020

        *************************************************************
        *                                                           *
        *  Thank you very much for using Q-Chem.  Have a nice day.  *
        *                                                           *
        *************************************************************


