                  Welcome to Q-Chem
     A Quantum Leap Into The Future Of Chemistry


 Q-Chem 5.3 (devel), Q-Chem, Inc., Pleasanton, CA (2020)

 Yihan Shao,  Zhengting Gan,  E. Epifanovsky,  A. T. B. Gilbert,  M. Wormit,  
 J. Kussmann,  A. W. Lange,  A. Behn,  Jia Deng,  Xintian Feng,  D. Ghosh,  
 M. Goldey,  P. R. Horn,  L. D. Jacobson,  I. Kaliman,  T. Kus,  A. Landau,  
 Jie Liu,  E. I. Proynov,  R. M. Richard,  R. P. Steele,  E. J. Sundstrom,  
 H. L. Woodcock III,  P. M. Zimmerman,  D. Zuev,  B. Alam,  B. Albrecht,  
 E. Alguire,  S. A. Baeppler,  D. Barton,  Z. Benda,  Y. A. Bernard,  
 E. J. Berquist,  K. B. Bravaya,  H. Burton,  K. Carter-Fenk,  D. Casanova,  
 Chun-Min Chang,  Yunqing Chen,  A. Chien,  K. D. Closser,  M. P. Coons,  
 S. Coriani,  S. Dasgupta,  A. L. Dempwolff,  M. Diedenhofen,  Hainam Do,  
 R. G. Edgar,  Po-Tung Fang,  S. Faraji,  S. Fatehi,  Qingguo Feng,  
 J. Fosso-Tande,  J. Gayvert,  Qinghui Ge,  A. Ghysels,  G. Gidofalvi,  
 J. Gomes,  J. Gonthier,  A. Gunina,  D. Hait,  M. W. D. Hanson-Heine,  
 P. H. P. Harbach,  A. W. Hauser,  M. F. Herbst,  J. E. Herr,  
 E. G. Hohenstein,  Z. C. Holden,  Kerwin Hui,  B. C. Huynh,  T.-C. Jagau,  
 Hyunjun Ji,  B. Kaduk,  K. Khistyaev,  Jaehoon Kim,  P. Klunzinger,  K. Koh,  
 D. Kosenkov,  L. Koulias,  T. Kowalczyk,  C. M. Krauter,  A. Kunitsa,  
 Ka Un Lao,  A. Laurent,  K. V. Lawler,  Joonho Lee,  D. Lefrancois,  
 S. Lehtola,  D. S. Levine,  Yi-Pei Li,  You-Sheng Lin,  Fenglai Liu,  
 Kuan-Yu Liu,  E. Livshits,  M. Loipersberger,  A. Luenser,  P. Manohar,  
 E. Mansoor,  S. F. Manzer,  Shan-Ping Mao,  Yuezhi Mao,  N. Mardirossian,  
 A. V. Marenich,  T. Markovich,  L. A. Martinez-Martinez,  S. A. Maurer,  
 N. J. Mayhall,  S. C. McKenzie,  J.-M. Mewes,  P. Morgante,  A. F. Morrison,  
 J. W. Mullinax,  K. Nanda,  T. S. Nguyen-Beck,  R. Olivares-Amaya,  
 K. J. Oosterbaan,  J. A. Parkhill,  S. K. Paul,  F. Pavosevic,  Zheng Pei,  
 T. M. Perrine,  F. Plasser,  P. Pokhilko,  S. Prager,  A. Prociuk,  
 E. Ramos,  B. Rana,  D. R. Rehn,  F. Rob,  M. Scheurer,  M. Schneider,  
 N. Sergueev,  S. M. Sharada,  S. Sharma,  D. W. Small,  T. Stauch,  
 C. J. Stein,  T. Stein,  Yu-Chuan Su,  S. P. Veccham,  Zhen Tao,  
 A. J. W. Thom,  A. Tkatchenko,  T. Tsuchimochi,  N. M. Tubman,  L. Vogt,  
 M. L. Vidal,  O. Vydrov,  M. A. Watson,  J. Wenzel,  M. de Wergifosse,  
 T. A. Wesolowski,  A. White,  J. Witte,  A. Yamada,  Jun Yang,  K. Yao,  
 S. Yeganeh,  S. R. Yost,  Zhi-Qiang You,  A. Zech,  Igor Ying Zhang,  
 Xing Zhang,  Yan Zhao,  Ying Zhu,  B. R. Brooks,  G. K. L. Chan,  
 C. J. Cramer,  M. S. Gordon,  W. J. Hehre,  A. Klamt,  M. W. Schmidt,  
 C. D. Sherrill,  D. G. Truhlar,  A. Aspuru-Guzik,  R. Baer,  A. T. Bell,  
 N. A. Besley,  Jeng-Da Chai,  A. E. DePrince, III,  R. A. DiStasio Jr.,  
 A. Dreuw,  B. D. Dunietz,  T. R. Furlani,  Chao-Ping Hsu,  Yousung Jung,  
 Jing Kong,  D. S. Lambrecht,  WanZhen Liang,  C. Ochsenfeld,  
 V. A. Rassolov,  L. V. Slipchenko,  J. E. Subotnik,  T. Van Voorhis,  
 J. M. Herbert,  A. I. Krylov,  P. M. W. Gill,  M. Head-Gordon

 Contributors to earlier versions of Q-Chem not listed above: 
 R. D. Adamson,  B. Austin,  J. Baker,  G. J. O. Beran,  K. Brandhorst,  
 S. T. Brown,  E. F. C. Byrd,  A. K. Chakraborty,  C.-L. Cheng,  
 Siu Hung Chien,  D. M. Chipman,  D. L. Crittenden,  H. Dachsel,  
 R. J. Doerksen,  A. D. Dutoi,  L. Fusti-Molnar,  W. A. Goddard III,  
 A. Golubeva-Zadorozhnaya,  S. R. Gwaltney,  G. Hawkins,  A. Heyden,  
 S. Hirata,  G. Kedziora,  F. J. Keil,  C. Kelley,  Jihan Kim,  R. A. King,  
 R. Z. Khaliullin,  P. P. Korambath,  W. Kurlancheek,  A. M. Lee,  M. S. Lee,  
 S. V. Levchenko,  Ching Yeh Lin,  D. Liotard,  R. C. Lochan,  I. Lotan,  
 P. E. Maslen,  N. Nair,  D. P. O'Neill,  D. Neuhauser,  E. Neuscamman,  
 C. M. Oana,  R. Olson,  B. Peters,  R. Peverati,  P. A. Pieniazek,  
 Y. M. Rhee,  J. Ritchie,  M. A. Rohrdanz,  E. Rosta,  N. J. Russ,  
 H. F. Schaefer III,  N. E. Schultz,  N. Shenvi,  A. C. Simmonett,  A. Sodt,  
 D. Stuck,  K. S. Thanthiriwatte,  V. Vanovschi,  Tao Wang,  A. Warshel,  
 C. F. Williams,  Q. Wu,  X. Xu,  W. Zhang

 Please cite Q-Chem as follows:
 Y. Shao et al., Mol. Phys. 113, 184-215 (2015)
 DOI: 10.1080/00268976.2014.952696

 Q-Chem 5.3.0 for Intel X86 EM64T Linux

 Parts of Q-Chem use Armadillo 9.800.1 (Horizon Scraper).
 http://arma.sourceforge.net/

 Q-Chem begins on Mon Jul 13 15:24:37 2020  

Host: centos77-c5
0

     Scratch files written to /tmp/29025.centos77-h1/qchem116681//
Processing $rem in /opt/qchem-5.3.0-intel2020u1//config/preferences:
Processing $rem in /home/shihchengli/.qchemrc:

Checking the input file for inconsistencies... 	...done.

--------------------------------------------------------------
User input:
--------------------------------------------------------------
$rem
   JOBTYPE  sp
   EXCHANGE   omegaB97X-D
   BASIS   6-311+G(2df,2pd)
   UNRESTRICTED   True
   max_scf_cycles   250
   geom_opt_max_cycles   1500
   basis2 6-31G*
   scf_algorithm rca_diis
   SYM_IGNORE  TRUE
   print_input   true
   geom_opt_dmax   80
   pop_mulliken false
   XC_GRID 000075000302
$end

$molecule
0 3
N       0.7082526363     1.2259400993     2.4783311664
O       0.3588258254     2.1730374661     1.8482042270
O       1.6461369755     1.0363741743     3.1735843272
N       0.0054409000     -1.1761487342     3.1386824715
O       -0.5137206593     -1.3598129328     4.1713508351
O       -0.2599445478     0.1955990371     2.2901468629
$end
--------------------------------------------------------------
 ----------------------------------------------------------------
             Standard Nuclear Orientation (Angstroms)
    I     Atom           X                Y                Z
 ----------------------------------------------------------------
    1      N       0.7082526363     1.2259400993     2.4783311664
    2      O       0.3588258254     2.1730374661     1.8482042270
    3      O       1.6461369755     1.0363741743     3.1735843272
    4      N       0.0054409000    -1.1761487342     3.1386824715
    5      O      -0.5137206593    -1.3598129328     4.1713508351
    6      O      -0.2599445478     0.1955990371     2.2901468629
 ----------------------------------------------------------------
 Nuclear Repulsion Energy =         230.32892217 hartrees
 There are       24 alpha and       22 beta electrons
 Requested basis set is 6-311+G(2df,2pd)
 There are 48 shells and 204 basis functions

 Total QAlloc Memory Limit   2000 MB
 Mega-Array Size       188 MB
 MEM_STATIC part       192 MB

                       Distance Matrix (Angstroms)
             N (  1)   O (  2)   O (  3)   N (  4)   O (  5)
   O (  2)  1.190022
   O (  3)  1.182768  2.169287
   N (  4)  2.588443  3.606558  2.754698
   O (  5)  3.323500  4.317335  3.376720  1.170327
   O (  6)  1.426332  2.118597  2.262855  1.634666  2.454106
 
 A cutoff of  1.0D-09 yielded   1018 shell pairs
 There are     18972 function pairs (     24867 Cartesian)
 Smallest overlap matrix eigenvalue = 7.27E-04

 Scale SEOQF with 1.000000e-01/1.000000e-01/1.000000e-01

 Standard Electronic Orientation quadrupole field applied
 Nucleus-field energy     =    -0.0000000361 hartrees
 Requested basis set is 6-31G(d)
 There are 24 shells and 84 basis functions
 A cutoff of  1.0D-09 yielded    268 shell pairs
 There are      3534 function pairs (      4062 Cartesian)
 Smallest overlap matrix eigenvalue = 4.85E-03
 Guess from superposition of atomic densities
 Warning:  Energy on first SCF cycle will be non-variational
 SAD guess density has 46.000000 electrons
 Long-range K will be added via erf
 Coulomb attenuation parameter = 0.2 bohr**(-1)
 An unrestricted hybrid HF-DFT SCF calculation will be
 performed using Relaxed Constraint Minimization + Pulay DIIS
 Exchange:     0.2220 Hartree-Fock + 1.0000 wB97X-D + LR-HF
 Correlation:  1.0000 wB97X-D
 Using Euler-Maclaurin-Lebedev (75,302) quadrature formula
 Dispersion:   Grimme D
 SCF converges when DIIS error is below 1.0E-04
 using 6 threads for integral computing
 -------------------------------------------------------
 OpenMP Integral computing Module                
 Release: version 1.0, May 2013, Q-Chem Inc. Pittsburgh 
 -------------------------------------------------------
 using 6 threads for integral computing
 -------------------------------------------------------
 OpenMP Integral computing Module                
 Release: version 1.0, May 2013, Q-Chem Inc. Pittsburgh 
 -------------------------------------------------------
 ---------------------------------------
  Cycle       Energy         DIIS Error
 ---------------------------------------
    1    -411.0250567746      8.83E-02
    2    -409.6594428945      1.95E-02
    3    -409.7628928795      4.44E-03
    4    -409.9106389883      4.70E-03
    5    -409.9168847119      6.51E-04 Done RCA. Switching to DIIS
    6    -409.9251997002      5.63E-04
    7    -409.9256107199      9.78E-05 Convergence criterion met
 ---------------------------------------
 <S^2> = 2.0150
 SCF time:  CPU 13.10 s  wall 2.19 s
 SCF   energy in the small basis set = -409.92561072
 Total energy in the small basis set = -409.92561072
 ----------------------------------------------------
  Cycle       Energy    
 ----------------------------------------------------
    1     -41.7522085065     -4.18E+01
 Long-range K will be added via erf
 Coulomb attenuation parameter = 0.2 bohr**(-1)
 An unrestricted hybrid HF-DFT SCF calculation will be
 performed using Relaxed Constraint Minimization + Pulay DIIS
 Exchange:     0.2220 Hartree-Fock + 1.0000 wB97X-D + LR-HF
 Correlation:  1.0000 wB97X-D
 Using Euler-Maclaurin-Lebedev (75,302) quadrature formula
 Dispersion:   Grimme D
 SCF converges when DIIS error is below 1.0E-05
 Basis2 calculation detected. Using small basis as guess for larger.
 SCFMinFind is unable to tell whether the solution found is close.
 Resetting ReadMinima to 0 and attempting to follow guess.
 SCFMinFind following SCF Guess.
 using 6 threads for integral computing
 -------------------------------------------------------
 OpenMP Integral computing Module                
 Release: version 1.0, May 2013, Q-Chem Inc. Pittsburgh 
 -------------------------------------------------------
 using 6 threads for integral computing
 -------------------------------------------------------
 OpenMP Integral computing Module                
 Release: version 1.0, May 2013, Q-Chem Inc. Pittsburgh 
 -------------------------------------------------------
 ---------------------------------------
  Cycle       Energy         DIIS Error
 ---------------------------------------
    1    -410.0137814389      8.04E-03
    2    -410.0203656620      4.27E-03
    3    -410.0427539568      1.21E-03
    4    -410.0745676485      1.19E-03
    5    -410.0770459606      1.49E-04 Done RCA. Switching to DIIS
    6    -410.0807396796      1.49E-04
    7    -410.0808939705      5.33E-05
    8    -410.0809704374      2.13E-05
    9    -410.0809949729      1.13E-05
   10    -410.0810028483      5.54E-06 Convergence criterion met
 ---------------------------------------
 <S^2> = 2.0181
 SCF time:  CPU 64.94 s  wall 10.85 s
 SCF   energy in the final basis set = -410.08100285
 Total energy in the final basis set = -410.08100285
 
 --------------------------------------------------------------
 
                    Orbital Energies (a.u.)
 --------------------------------------------------------------
 
 Alpha MOs
 -- Occupied --
-19.4106 -19.3988 -19.3519 -19.3506 -14.7744 -14.6208  -1.4450  -1.3675
 -1.2619  -1.2056  -0.8774  -0.7763  -0.7210  -0.7186  -0.6851  -0.6551
 -0.6321  -0.6307  -0.5037  -0.4965  -0.4661  -0.4625  -0.4365  -0.3408
 -- Virtual --
 -0.0249   0.0102   0.0759   0.1147   0.1235   0.1349   0.1376   0.1698
  0.1783   0.1856   0.2265   0.2418   0.2482   0.2645   0.2706   0.2882
  0.3036   0.3261   0.3399   0.3445   0.3517   0.3606   0.3690   0.3900
  0.3999   0.4326   0.4456   0.4599   0.4913   0.5259   0.7395   0.7644
  0.8024   0.8280   0.8687   0.8740   0.9311   0.9479   0.9815   1.0139
  1.0263   1.0489   1.0616   1.0726   1.0804   1.0843   1.1201   1.1233
  1.1423   1.1526   1.1596   1.1638   1.2207   1.2475   1.2571   1.3345
  1.4322   1.4734   1.5177   1.5443   1.5667   1.5824   1.5967   1.6238
  1.6298   1.6725   1.7107   1.7880   1.8174   1.8826   1.9210   1.9434
  1.9854   2.1208   2.1902   2.2381   2.3229   2.3718   2.4425   2.4951
  2.5388   2.5637   2.6789   2.8016   3.4963   3.5380   3.5884   3.6184
  3.6291   3.6593   3.6769   3.7144   3.7244   3.7734   3.7918   3.8941
  3.9500   3.9937   4.0187   4.0756   4.0950   4.4189   4.4521   4.4884
  4.4954   4.5902   4.6486   4.6573   4.6854   4.7171   4.7388   4.7866
  4.8143   4.9115   4.9959   5.0000   5.0216   5.0254   5.0400   5.0445
  5.0612   5.0809   5.0850   5.1037   5.1212   5.1460   5.1637   5.1688
  5.2008   5.2708   5.3162   5.3797   5.3991   5.4257   5.4583   5.5071
  5.5300   5.5505   5.6251   5.6670   5.8335   5.8554   5.9682   6.1262
  6.3578   6.5336   6.6449   6.6507   6.6968   6.7258   6.7393   6.7635
  6.7881   6.8214   6.8680   6.9109   6.9408   6.9852   7.0954   7.1026
  7.1595   7.1686   7.1997   7.2675   7.2883   7.3546   7.4405   7.5534
  7.6912   7.6916   7.8255   7.8361   7.9069   8.2760  35.9094  36.1201
 49.9831  50.1632  50.2331  50.2591
 
 Beta MOs
 -- Occupied --
-19.3976 -19.3808 -19.3510 -19.3495 -14.7742 -14.6028  -1.4406  -1.3291
 -1.2592  -1.1725  -0.8342  -0.7446  -0.7165  -0.7040  -0.6742  -0.6010
 -0.5823  -0.5573  -0.4784  -0.4719  -0.4637  -0.4491
 -- Virtual --
 -0.1492  -0.0224  -0.0102   0.0598   0.0861   0.1211   0.1356   0.1407
  0.1420   0.1722   0.1818   0.1899   0.2275   0.2460   0.2514   0.2659
  0.2732   0.2907   0.3111   0.3276   0.3408   0.3464   0.3536   0.3629
  0.3707   0.3982   0.4087   0.4373   0.4492   0.4640   0.5098   0.5314
  0.7503   0.7712   0.8163   0.8467   0.8787   0.8846   0.9339   0.9553
  0.9922   1.0255   1.0305   1.0630   1.0732   1.0880   1.0929   1.0960
  1.1267   1.1391   1.1501   1.1663   1.1677   1.1759   1.2331   1.2573
  1.2718   1.3475   1.4474   1.4860   1.5221   1.5490   1.5715   1.5931
  1.6137   1.6448   1.6501   1.6963   1.7177   1.7931   1.8249   1.8939
  1.9257   1.9600   2.0010   2.1352   2.2030   2.2501   2.3377   2.3812
  2.4565   2.5098   2.5412   2.5710   2.6872   2.8056   3.5220   3.5744
  3.6025   3.6339   3.6478   3.6607   3.6910   3.7259   3.7406   3.8028
  3.8577   3.9123   3.9782   4.0111   4.0214   4.0903   4.1102   4.4214
  4.4552   4.4945   4.4988   4.6196   4.6531   4.6989   4.7170   4.7350
  4.7665   4.8156   4.8655   4.9615   5.0137   5.0160   5.0417   5.0449
  5.0544   5.0643   5.0774   5.0890   5.1029   5.1254   5.1308   5.1632
  5.1965   5.2036   5.2115   5.2973   5.3330   5.3935   5.4072   5.4409
  5.4714   5.5336   5.5427   5.5685   5.6466   5.6841   5.8385   5.8616
  5.9861   6.1585   6.3725   6.5360   6.6696   6.6898   6.7230   6.7664
  6.7895   6.7963   6.8043   6.8288   6.8713   6.9123   6.9707   7.0008
  7.1143   7.1216   7.1652   7.2021   7.2271   7.2769   7.3083   7.3648
  7.4670   7.5606   7.7165   7.7203   7.8360   7.8558   7.9146   8.2785
 35.9312  36.1205  49.9966  50.1801  50.2354  50.2590
 --------------------------------------------------------------
 
 -----------------------------------------------------------------
                    Cartesian Multipole Moments
 -----------------------------------------------------------------
    Charge (ESU x 10^10)
                -0.0000
    Dipole Moment (Debye)
         X      -0.1892      Y      -0.7340      Z       0.0937
       Tot       0.7637
    Quadrupole Moments (Debye-Ang)
        XX     -33.1102     XY      -0.9061     YY     -33.3334
        XZ      -1.7105     YZ      -0.7011     ZZ     -32.0443
    Octopole Moments (Debye-Ang^2)
       XXX     -34.0183    XXY     -12.8818    XYY     -11.4248
       YYY     -41.1664    XXZ     -96.1698    XYZ      -3.9660
       YYZ     -91.4431    XZZ     -17.3721    YZZ      -9.3165
       ZZZ    -276.0415
    Hexadecapole Moments (Debye-Ang^3)
      XXXX    -145.5759   XXXY     -66.3500   XXYY     -86.0773
      XYYY     -68.1908   YYYY    -370.2416   XXXZ     -90.1185
      XXYZ     -14.4063   XYYZ     -28.4884   YYYZ     -38.2769
      XXZZ    -323.3010   XYZZ     -36.5482   YYZZ    -335.7518
      XZZZ    -102.5048   YZZZ      -6.1703   ZZZZ   -1708.3534
 -----------------------------------------------------------------
Archival summary:
1\1\centos77-c5\SP\ProcedureUnspecified\BasisUnspecified\42(3)\shihchen\MonJul1315:24:522020MonJul1315:24:522020\0\\#,ProcedureUnspecified,BasisUnspecified,\\0,3\N\O,1,1.18277\O,1,1.19002,2,132.194\O,1,1.42633,2,120.003,3,-179.618,0\N,4,1.63467,1,115.309,2,2.51832,0\O,5,1.17033,4,121.178,1,95.6949,0\\\@

 Total job time:  15.42s(wall), 82.39s(cpu) 
 Mon Jul 13 15:24:52 2020

        *************************************************************
        *                                                           *
        *  Thank you very much for using Q-Chem.  Have a nice day.  *
        *                                                           *
        *************************************************************


