                  Welcome to Q-Chem
     A Quantum Leap Into The Future Of Chemistry


 Q-Chem 5.3 (devel), Q-Chem, Inc., Pleasanton, CA (2020)

 Yihan Shao,  Zhengting Gan,  E. Epifanovsky,  A. T. B. Gilbert,  M. Wormit,  
 J. Kussmann,  A. W. Lange,  A. Behn,  Jia Deng,  Xintian Feng,  D. Ghosh,  
 M. Goldey,  P. R. Horn,  L. D. Jacobson,  I. Kaliman,  T. Kus,  A. Landau,  
 Jie Liu,  E. I. Proynov,  R. M. Richard,  R. P. Steele,  E. J. Sundstrom,  
 H. L. Woodcock III,  P. M. Zimmerman,  D. Zuev,  B. Alam,  B. Albrecht,  
 E. Alguire,  S. A. Baeppler,  D. Barton,  Z. Benda,  Y. A. Bernard,  
 E. J. Berquist,  K. B. Bravaya,  H. Burton,  K. Carter-Fenk,  D. Casanova,  
 Chun-Min Chang,  Yunqing Chen,  A. Chien,  K. D. Closser,  M. P. Coons,  
 S. Coriani,  S. Dasgupta,  A. L. Dempwolff,  M. Diedenhofen,  Hainam Do,  
 R. G. Edgar,  Po-Tung Fang,  S. Faraji,  S. Fatehi,  Qingguo Feng,  
 J. Fosso-Tande,  J. Gayvert,  Qinghui Ge,  A. Ghysels,  G. Gidofalvi,  
 J. Gomes,  J. Gonthier,  A. Gunina,  D. Hait,  M. W. D. Hanson-Heine,  
 P. H. P. Harbach,  A. W. Hauser,  M. F. Herbst,  J. E. Herr,  
 E. G. Hohenstein,  Z. C. Holden,  Kerwin Hui,  B. C. Huynh,  T.-C. Jagau,  
 Hyunjun Ji,  B. Kaduk,  K. Khistyaev,  Jaehoon Kim,  P. Klunzinger,  K. Koh,  
 D. Kosenkov,  L. Koulias,  T. Kowalczyk,  C. M. Krauter,  A. Kunitsa,  
 Ka Un Lao,  A. Laurent,  K. V. Lawler,  Joonho Lee,  D. Lefrancois,  
 S. Lehtola,  D. S. Levine,  Yi-Pei Li,  You-Sheng Lin,  Fenglai Liu,  
 Kuan-Yu Liu,  E. Livshits,  M. Loipersberger,  A. Luenser,  P. Manohar,  
 E. Mansoor,  S. F. Manzer,  Shan-Ping Mao,  Yuezhi Mao,  N. Mardirossian,  
 A. V. Marenich,  T. Markovich,  L. A. Martinez-Martinez,  S. A. Maurer,  
 N. J. Mayhall,  S. C. McKenzie,  J.-M. Mewes,  P. Morgante,  A. F. Morrison,  
 J. W. Mullinax,  K. Nanda,  T. S. Nguyen-Beck,  R. Olivares-Amaya,  
 K. J. Oosterbaan,  J. A. Parkhill,  S. K. Paul,  F. Pavosevic,  Zheng Pei,  
 T. M. Perrine,  F. Plasser,  P. Pokhilko,  S. Prager,  A. Prociuk,  
 E. Ramos,  B. Rana,  D. R. Rehn,  F. Rob,  M. Scheurer,  M. Schneider,  
 N. Sergueev,  S. M. Sharada,  S. Sharma,  D. W. Small,  T. Stauch,  
 C. J. Stein,  T. Stein,  Yu-Chuan Su,  S. P. Veccham,  Zhen Tao,  
 A. J. W. Thom,  A. Tkatchenko,  T. Tsuchimochi,  N. M. Tubman,  L. Vogt,  
 M. L. Vidal,  O. Vydrov,  M. A. Watson,  J. Wenzel,  M. de Wergifosse,  
 T. A. Wesolowski,  A. White,  J. Witte,  A. Yamada,  Jun Yang,  K. Yao,  
 S. Yeganeh,  S. R. Yost,  Zhi-Qiang You,  A. Zech,  Igor Ying Zhang,  
 Xing Zhang,  Yan Zhao,  Ying Zhu,  B. R. Brooks,  G. K. L. Chan,  
 C. J. Cramer,  M. S. Gordon,  W. J. Hehre,  A. Klamt,  M. W. Schmidt,  
 C. D. Sherrill,  D. G. Truhlar,  A. Aspuru-Guzik,  R. Baer,  A. T. Bell,  
 N. A. Besley,  Jeng-Da Chai,  A. E. DePrince, III,  R. A. DiStasio Jr.,  
 A. Dreuw,  B. D. Dunietz,  T. R. Furlani,  Chao-Ping Hsu,  Yousung Jung,  
 Jing Kong,  D. S. Lambrecht,  WanZhen Liang,  C. Ochsenfeld,  
 V. A. Rassolov,  L. V. Slipchenko,  J. E. Subotnik,  T. Van Voorhis,  
 J. M. Herbert,  A. I. Krylov,  P. M. W. Gill,  M. Head-Gordon

 Contributors to earlier versions of Q-Chem not listed above: 
 R. D. Adamson,  B. Austin,  J. Baker,  G. J. O. Beran,  K. Brandhorst,  
 S. T. Brown,  E. F. C. Byrd,  A. K. Chakraborty,  C.-L. Cheng,  
 Siu Hung Chien,  D. M. Chipman,  D. L. Crittenden,  H. Dachsel,  
 R. J. Doerksen,  A. D. Dutoi,  L. Fusti-Molnar,  W. A. Goddard III,  
 A. Golubeva-Zadorozhnaya,  S. R. Gwaltney,  G. Hawkins,  A. Heyden,  
 S. Hirata,  G. Kedziora,  F. J. Keil,  C. Kelley,  Jihan Kim,  R. A. King,  
 R. Z. Khaliullin,  P. P. Korambath,  W. Kurlancheek,  A. M. Lee,  M. S. Lee,  
 S. V. Levchenko,  Ching Yeh Lin,  D. Liotard,  R. C. Lochan,  I. Lotan,  
 P. E. Maslen,  N. Nair,  D. P. O'Neill,  D. Neuhauser,  E. Neuscamman,  
 C. M. Oana,  R. Olson,  B. Peters,  R. Peverati,  P. A. Pieniazek,  
 Y. M. Rhee,  J. Ritchie,  M. A. Rohrdanz,  E. Rosta,  N. J. Russ,  
 H. F. Schaefer III,  N. E. Schultz,  N. Shenvi,  A. C. Simmonett,  A. Sodt,  
 D. Stuck,  K. S. Thanthiriwatte,  V. Vanovschi,  Tao Wang,  A. Warshel,  
 C. F. Williams,  Q. Wu,  X. Xu,  W. Zhang

 Please cite Q-Chem as follows:
 Y. Shao et al., Mol. Phys. 113, 184-215 (2015)
 DOI: 10.1080/00268976.2014.952696

 Q-Chem 5.3.0 for Intel X86 EM64T Linux

 Parts of Q-Chem use Armadillo 9.800.1 (Horizon Scraper).
 http://arma.sourceforge.net/

 Q-Chem begins on Mon Jul 13 15:34:04 2020  

Host: centos77-c5
0

     Scratch files written to /tmp/29025.centos77-h1/qchem25775//
Processing $rem in /opt/qchem-5.3.0-intel2020u1//config/preferences:
Processing $rem in /home/shihchengli/.qchemrc:

Checking the input file for inconsistencies... 	...done.

--------------------------------------------------------------
User input:
--------------------------------------------------------------
$rem
   JOBTYPE  sp
   EXCHANGE   omegaB97X-D
   BASIS   6-311+G(2df,2pd)
   UNRESTRICTED   True
   max_scf_cycles   250
   geom_opt_max_cycles   1500
   basis2 6-31G*
   scf_algorithm rca_diis
   SYM_IGNORE  TRUE
   print_input   true
   geom_opt_dmax   80
   pop_mulliken false
   XC_GRID 000075000302
$end

$molecule
0 3
N       0.6960009980     1.1195576940     2.5188924977
O       0.2792953333     1.9980918539     1.8096699338
O       1.6290570448     0.9600656076     3.2577538695
N       -0.0206909622     -0.9866178235     3.1388314204
O       -0.4157340565     -1.3948983141     4.1439418885
O       -0.2229372273     0.3987900921     2.2312102800
$end
--------------------------------------------------------------
 ----------------------------------------------------------------
             Standard Nuclear Orientation (Angstroms)
    I     Atom           X                Y                Z
 ----------------------------------------------------------------
    1      N       0.6960009980     1.1195576940     2.5188924977
    2      O       0.2792953333     1.9980918539     1.8096699338
    3      O       1.6290570448     0.9600656076     3.2577538695
    4      N      -0.0206909622    -0.9866178235     3.1388314204
    5      O      -0.4157340565    -1.3948983141     4.1439418885
    6      O      -0.2229372273     0.3987900921     2.2312102800
 ----------------------------------------------------------------
 Nuclear Repulsion Energy =         240.14458016 hartrees
 There are       24 alpha and       22 beta electrons
 Requested basis set is 6-311+G(2df,2pd)
 There are 48 shells and 204 basis functions

 Total QAlloc Memory Limit   2000 MB
 Mega-Array Size       188 MB
 MEM_STATIC part       192 MB

                       Distance Matrix (Angstroms)
             N (  1)   O (  2)   O (  3)   N (  4)   O (  5)
   O (  2)  1.203521
   O (  3)  1.200811  2.235241
   N (  4)  2.309534  3.281029  2.554484
   O (  5)  3.193623  4.176634  3.242276  1.154556
   O (  6)  1.202794  1.728496  2.190595  1.668543  2.629264
 
 A cutoff of  1.0D-09 yielded   1041 shell pairs
 There are     19367 function pairs (     25407 Cartesian)
 Smallest overlap matrix eigenvalue = 4.97E-04

 Scale SEOQF with 1.000000e-01/1.000000e-01/1.000000e-01

 Standard Electronic Orientation quadrupole field applied
 Nucleus-field energy     =    -0.0000000369 hartrees
 Requested basis set is 6-31G(d)
 There are 24 shells and 84 basis functions
 A cutoff of  1.0D-09 yielded    267 shell pairs
 There are      3530 function pairs (      4058 Cartesian)
 Smallest overlap matrix eigenvalue = 3.87E-03
 Guess from superposition of atomic densities
 Warning:  Energy on first SCF cycle will be non-variational
 SAD guess density has 46.000000 electrons
 Long-range K will be added via erf
 Coulomb attenuation parameter = 0.2 bohr**(-1)
 An unrestricted hybrid HF-DFT SCF calculation will be
 performed using Relaxed Constraint Minimization + Pulay DIIS
 Exchange:     0.2220 Hartree-Fock + 1.0000 wB97X-D + LR-HF
 Correlation:  1.0000 wB97X-D
 Using Euler-Maclaurin-Lebedev (75,302) quadrature formula
 Dispersion:   Grimme D
 SCF converges when DIIS error is below 1.0E-04
 using 6 threads for integral computing
 -------------------------------------------------------
 OpenMP Integral computing Module                
 Release: version 1.0, May 2013, Q-Chem Inc. Pittsburgh 
 -------------------------------------------------------
 using 6 threads for integral computing
 -------------------------------------------------------
 OpenMP Integral computing Module                
 Release: version 1.0, May 2013, Q-Chem Inc. Pittsburgh 
 -------------------------------------------------------
 ---------------------------------------
  Cycle       Energy         DIIS Error
 ---------------------------------------
    1    -411.5015316287      9.81E-02
    2    -409.5903329956      1.96E-02
    3    -409.6931116211      4.88E-03
    4    -409.8434077447      4.85E-03
    5    -409.8499965535      5.59E-04 Done RCA. Switching to DIIS
    6    -409.8581344393      3.93E-04
    7    -409.8583513497      1.55E-04
    8    -409.8584259949      7.96E-05 Convergence criterion met
 ---------------------------------------
 <S^2> = 2.0144
 SCF time:  CPU 14.43 s  wall 2.42 s
 SCF   energy in the small basis set = -409.85842599
 Total energy in the small basis set = -409.85842599
 ----------------------------------------------------
  Cycle       Energy    
 ----------------------------------------------------
    1     -41.9107894596     -4.19E+01
 Long-range K will be added via erf
 Coulomb attenuation parameter = 0.2 bohr**(-1)
 An unrestricted hybrid HF-DFT SCF calculation will be
 performed using Relaxed Constraint Minimization + Pulay DIIS
 Exchange:     0.2220 Hartree-Fock + 1.0000 wB97X-D + LR-HF
 Correlation:  1.0000 wB97X-D
 Using Euler-Maclaurin-Lebedev (75,302) quadrature formula
 Dispersion:   Grimme D
 SCF converges when DIIS error is below 1.0E-05
 Basis2 calculation detected. Using small basis as guess for larger.
 SCFMinFind is unable to tell whether the solution found is close.
 Resetting ReadMinima to 0 and attempting to follow guess.
 SCFMinFind following SCF Guess.
 using 6 threads for integral computing
 -------------------------------------------------------
 OpenMP Integral computing Module                
 Release: version 1.0, May 2013, Q-Chem Inc. Pittsburgh 
 -------------------------------------------------------
 using 6 threads for integral computing
 -------------------------------------------------------
 OpenMP Integral computing Module                
 Release: version 1.0, May 2013, Q-Chem Inc. Pittsburgh 
 -------------------------------------------------------
 ---------------------------------------
  Cycle       Energy         DIIS Error
 ---------------------------------------
    1    -409.9570795300      7.97E-03
    2    -409.9700347220      3.74E-03
    3    -409.9873092831      1.08E-03
    4    -410.0115461404      1.08E-03
    5    -410.0133238204      1.62E-04 Done RCA. Switching to DIIS
    6    -410.0157531467      1.79E-04
    7    -410.0158791595      3.85E-05
    8    -410.0159126997      1.62E-05
    9    -410.0159232699      7.03E-06 Convergence criterion met
 ---------------------------------------
 <S^2> = 2.0162
 SCF time:  CPU 61.38 s  wall 10.27 s
 SCF   energy in the final basis set = -410.01592327
 Total energy in the final basis set = -410.01592327
 
 --------------------------------------------------------------
 
                    Orbital Energies (a.u.)
 --------------------------------------------------------------
 
 Alpha MOs
 -- Occupied --
-19.4162 -19.3799 -19.3551 -19.3505 -14.7880 -14.5864  -1.5308  -1.3565
 -1.2968  -1.2248  -0.8717  -0.7804  -0.7660  -0.7280  -0.7068  -0.6459
 -0.6267  -0.6148  -0.5258  -0.5051  -0.4700  -0.4654  -0.3903  -0.3177
 -- Virtual --
 -0.0289   0.0107   0.0815   0.1176   0.1324   0.1388   0.1677   0.1793
  0.1891   0.2206   0.2421   0.2457   0.2608   0.2653   0.2800   0.2947
  0.3111   0.3168   0.3239   0.3424   0.3507   0.3597   0.3838   0.3886
  0.4151   0.4319   0.4450   0.4826   0.5092   0.5528   0.7282   0.7648
  0.8029   0.8196   0.8633   0.8930   0.9404   0.9558   0.9712   1.0130
  1.0371   1.0486   1.0532   1.0832   1.0863   1.1069   1.1097   1.1338
  1.1410   1.1781   1.1852   1.1927   1.2232   1.2300   1.2362   1.3233
  1.4628   1.4705   1.5117   1.5535   1.5721   1.5881   1.6238   1.6373
  1.6568   1.6956   1.7429   1.7721   1.8150   1.9554   1.9782   2.1015
  2.1116   2.1709   2.2045   2.2737   2.3996   2.4630   2.5161   2.5327
  2.5752   2.6379   2.7645   2.7881   3.5300   3.5355   3.5912   3.6019
  3.6246   3.6758   3.6936   3.7060   3.7871   3.8214   3.8389   3.9003
  3.9731   3.9999   4.0886   4.1162   4.2632   4.3529   4.4156   4.4857
  4.5407   4.5562   4.5662   4.6478   4.6787   4.7193   4.7277   4.7930
  4.8622   4.9017   4.9941   5.0119   5.0219   5.0348   5.0419   5.0463
  5.0703   5.0974   5.1052   5.1150   5.1257   5.1442   5.1902   5.2407
  5.2698   5.3105   5.3798   5.3973   5.4346   5.4547   5.5019   5.5243
  5.5808   5.6535   5.7307   5.7708   5.8375   5.9715   6.1161   6.2712
  6.6914   6.7084   6.7225   6.7454   6.7507   6.7592   6.7753   6.8311
  6.8498   6.8727   7.0004   7.0165   7.0225   7.0749   7.1267   7.1755
  7.1827   7.2072   7.2328   7.2675   7.3340   7.4434   7.5435   7.6343
  7.7507   7.8873   7.9326   7.9916   8.2735   8.3858  35.9893  36.3367
 50.1508  50.2165  50.2607  50.3343
 
 Beta MOs
 -- Occupied --
-19.4030 -19.3651 -19.3556 -19.3421 -14.7881 -14.5693  -1.5161  -1.3236
 -1.2917  -1.2004  -0.8311  -0.7619  -0.7538  -0.7035  -0.6858  -0.6114
 -0.5764  -0.5498  -0.4969  -0.4806  -0.4578  -0.4382
 -- Virtual --
 -0.1046  -0.0235   0.0162   0.0583   0.0849   0.1218   0.1351   0.1434
  0.1713   0.1838   0.1935   0.2222   0.2448   0.2503   0.2642   0.2681
  0.2844   0.2995   0.3132   0.3233   0.3284   0.3437   0.3531   0.3617
  0.3868   0.3939   0.4233   0.4347   0.4489   0.4859   0.5305   0.5626
  0.7366   0.7781   0.8110   0.8301   0.8838   0.9047   0.9461   0.9640
  0.9807   1.0186   1.0439   1.0564   1.0627   1.0900   1.1061   1.1185
  1.1213   1.1425   1.1527   1.1825   1.1945   1.2083   1.2334   1.2466
  1.2530   1.3395   1.4743   1.4907   1.5160   1.5595   1.5835   1.5995
  1.6392   1.6554   1.6679   1.7078   1.7658   1.7817   1.8196   1.9594
  1.9885   2.1146   2.1281   2.1839   2.2145   2.2893   2.4038   2.4770
  2.5187   2.5446   2.5861   2.6551   2.7745   2.7942   3.5594   3.5731
  3.6064   3.6213   3.6321   3.6838   3.7059   3.7200   3.8166   3.8422
  3.8949   3.9172   3.9924   4.0084   4.1052   4.1362   4.2711   4.3630
  4.4201   4.4873   4.5515   4.5682   4.5760   4.6621   4.7026   4.7558
  4.7680   4.8374   4.9065   4.9365   5.0093   5.0245   5.0396   5.0421
  5.0732   5.0753   5.0826   5.1134   5.1206   5.1284   5.1436   5.1704
  5.1957   5.2703   5.2923   5.3285   5.3919   5.4037   5.4574   5.4760
  5.5244   5.5357   5.5934   5.6800   5.7401   5.7845   5.8567   6.0038
  6.1299   6.2765   6.7079   6.7310   6.7539   6.7683   6.7912   6.8032
  6.8060   6.8518   6.8597   6.8940   7.0091   7.0287   7.0429   7.0902
  7.1342   7.2023   7.2085   7.2278   7.2531   7.2735   7.3617   7.4582
  7.5618   7.6549   7.7726   7.8992   7.9391   8.0271   8.2842   8.3981
 36.0100  36.3367  50.1597  50.2301  50.2616  50.3443
 --------------------------------------------------------------
 
 -----------------------------------------------------------------
                    Cartesian Multipole Moments
 -----------------------------------------------------------------
    Charge (ESU x 10^10)
                -0.0000
    Dipole Moment (Debye)
         X      -0.2812      Y      -0.2265      Z      -0.2255
       Tot       0.4257
    Quadrupole Moments (Debye-Ang)
        XX     -32.6752     XY      -1.1040     YY     -33.9269
        XZ      -1.9562     YZ       1.1407     ZZ     -33.8828
    Octopole Moments (Debye-Ang^2)
       XXX     -34.1247    XXY     -12.5849    XYY     -11.1503
       YYY     -39.3115    XXZ     -95.2673    XYZ      -4.4667
       YYZ     -93.7989    XZZ     -18.3777    YZZ      -2.8062
       ZZZ    -285.1362
    Hexadecapole Moments (Debye-Ang^3)
      XXXX    -137.7862   XXXY     -57.8348   XXYY     -77.6853
      XYYY     -59.4064   YYYY    -330.1376   XXXZ     -95.5969
      XXYZ     -14.4389   XYYZ     -29.1087   YYYZ     -35.0929
      XXZZ    -321.0923   XYZZ     -35.6761   YYZZ    -338.9752
      XZZZ    -111.7968   YZZZ      14.9054   ZZZZ   -1755.3900
 -----------------------------------------------------------------
Archival summary:
1\1\centos77-c5\SP\ProcedureUnspecified\BasisUnspecified\42(3)\shihchen\MonJul1315:34:192020MonJul1315:34:192020\0\\#,ProcedureUnspecified,BasisUnspecified,\\0,3\N\O,1,1.20081\O,1,1.20279,2,131.393\O,1,1.20352,2,136.768,3,178.665,0\N,3,1.66854,1,105.953,2,1.90081,0\O,5,1.15456,3,136.527,1,95.6949,0\\\@

 Total job time:  15.10s(wall), 80.17s(cpu) 
 Mon Jul 13 15:34:19 2020

        *************************************************************
        *                                                           *
        *  Thank you very much for using Q-Chem.  Have a nice day.  *
        *                                                           *
        *************************************************************


