                  Welcome to Q-Chem
     A Quantum Leap Into The Future Of Chemistry


 Q-Chem 5.3 (devel), Q-Chem, Inc., Pleasanton, CA (2020)

 Yihan Shao,  Zhengting Gan,  E. Epifanovsky,  A. T. B. Gilbert,  M. Wormit,  
 J. Kussmann,  A. W. Lange,  A. Behn,  Jia Deng,  Xintian Feng,  D. Ghosh,  
 M. Goldey,  P. R. Horn,  L. D. Jacobson,  I. Kaliman,  T. Kus,  A. Landau,  
 Jie Liu,  E. I. Proynov,  R. M. Richard,  R. P. Steele,  E. J. Sundstrom,  
 H. L. Woodcock III,  P. M. Zimmerman,  D. Zuev,  B. Alam,  B. Albrecht,  
 E. Alguire,  S. A. Baeppler,  D. Barton,  Z. Benda,  Y. A. Bernard,  
 E. J. Berquist,  K. B. Bravaya,  H. Burton,  K. Carter-Fenk,  D. Casanova,  
 Chun-Min Chang,  Yunqing Chen,  A. Chien,  K. D. Closser,  M. P. Coons,  
 S. Coriani,  S. Dasgupta,  A. L. Dempwolff,  M. Diedenhofen,  Hainam Do,  
 R. G. Edgar,  Po-Tung Fang,  S. Faraji,  S. Fatehi,  Qingguo Feng,  
 J. Fosso-Tande,  J. Gayvert,  Qinghui Ge,  A. Ghysels,  G. Gidofalvi,  
 J. Gomes,  J. Gonthier,  A. Gunina,  D. Hait,  M. W. D. Hanson-Heine,  
 P. H. P. Harbach,  A. W. Hauser,  M. F. Herbst,  J. E. Herr,  
 E. G. Hohenstein,  Z. C. Holden,  Kerwin Hui,  B. C. Huynh,  T.-C. Jagau,  
 Hyunjun Ji,  B. Kaduk,  K. Khistyaev,  Jaehoon Kim,  P. Klunzinger,  K. Koh,  
 D. Kosenkov,  L. Koulias,  T. Kowalczyk,  C. M. Krauter,  A. Kunitsa,  
 Ka Un Lao,  A. Laurent,  K. V. Lawler,  Joonho Lee,  D. Lefrancois,  
 S. Lehtola,  D. S. Levine,  Yi-Pei Li,  You-Sheng Lin,  Fenglai Liu,  
 Kuan-Yu Liu,  E. Livshits,  M. Loipersberger,  A. Luenser,  P. Manohar,  
 E. Mansoor,  S. F. Manzer,  Shan-Ping Mao,  Yuezhi Mao,  N. Mardirossian,  
 A. V. Marenich,  T. Markovich,  L. A. Martinez-Martinez,  S. A. Maurer,  
 N. J. Mayhall,  S. C. McKenzie,  J.-M. Mewes,  P. Morgante,  A. F. Morrison,  
 J. W. Mullinax,  K. Nanda,  T. S. Nguyen-Beck,  R. Olivares-Amaya,  
 K. J. Oosterbaan,  J. A. Parkhill,  S. K. Paul,  F. Pavosevic,  Zheng Pei,  
 T. M. Perrine,  F. Plasser,  P. Pokhilko,  S. Prager,  A. Prociuk,  
 E. Ramos,  B. Rana,  D. R. Rehn,  F. Rob,  M. Scheurer,  M. Schneider,  
 N. Sergueev,  S. M. Sharada,  S. Sharma,  D. W. Small,  T. Stauch,  
 C. J. Stein,  T. Stein,  Yu-Chuan Su,  S. P. Veccham,  Zhen Tao,  
 A. J. W. Thom,  A. Tkatchenko,  T. Tsuchimochi,  N. M. Tubman,  L. Vogt,  
 M. L. Vidal,  O. Vydrov,  M. A. Watson,  J. Wenzel,  M. de Wergifosse,  
 T. A. Wesolowski,  A. White,  J. Witte,  A. Yamada,  Jun Yang,  K. Yao,  
 S. Yeganeh,  S. R. Yost,  Zhi-Qiang You,  A. Zech,  Igor Ying Zhang,  
 Xing Zhang,  Yan Zhao,  Ying Zhu,  B. R. Brooks,  G. K. L. Chan,  
 C. J. Cramer,  M. S. Gordon,  W. J. Hehre,  A. Klamt,  M. W. Schmidt,  
 C. D. Sherrill,  D. G. Truhlar,  A. Aspuru-Guzik,  R. Baer,  A. T. Bell,  
 N. A. Besley,  Jeng-Da Chai,  A. E. DePrince, III,  R. A. DiStasio Jr.,  
 A. Dreuw,  B. D. Dunietz,  T. R. Furlani,  Chao-Ping Hsu,  Yousung Jung,  
 Jing Kong,  D. S. Lambrecht,  WanZhen Liang,  C. Ochsenfeld,  
 V. A. Rassolov,  L. V. Slipchenko,  J. E. Subotnik,  T. Van Voorhis,  
 J. M. Herbert,  A. I. Krylov,  P. M. W. Gill,  M. Head-Gordon

 Contributors to earlier versions of Q-Chem not listed above: 
 R. D. Adamson,  B. Austin,  J. Baker,  G. J. O. Beran,  K. Brandhorst,  
 S. T. Brown,  E. F. C. Byrd,  A. K. Chakraborty,  C.-L. Cheng,  
 Siu Hung Chien,  D. M. Chipman,  D. L. Crittenden,  H. Dachsel,  
 R. J. Doerksen,  A. D. Dutoi,  L. Fusti-Molnar,  W. A. Goddard III,  
 A. Golubeva-Zadorozhnaya,  S. R. Gwaltney,  G. Hawkins,  A. Heyden,  
 S. Hirata,  G. Kedziora,  F. J. Keil,  C. Kelley,  Jihan Kim,  R. A. King,  
 R. Z. Khaliullin,  P. P. Korambath,  W. Kurlancheek,  A. M. Lee,  M. S. Lee,  
 S. V. Levchenko,  Ching Yeh Lin,  D. Liotard,  R. C. Lochan,  I. Lotan,  
 P. E. Maslen,  N. Nair,  D. P. O'Neill,  D. Neuhauser,  E. Neuscamman,  
 C. M. Oana,  R. Olson,  B. Peters,  R. Peverati,  P. A. Pieniazek,  
 Y. M. Rhee,  J. Ritchie,  M. A. Rohrdanz,  E. Rosta,  N. J. Russ,  
 H. F. Schaefer III,  N. E. Schultz,  N. Shenvi,  A. C. Simmonett,  A. Sodt,  
 D. Stuck,  K. S. Thanthiriwatte,  V. Vanovschi,  Tao Wang,  A. Warshel,  
 C. F. Williams,  Q. Wu,  X. Xu,  W. Zhang

 Please cite Q-Chem as follows:
 Y. Shao et al., Mol. Phys. 113, 184-215 (2015)
 DOI: 10.1080/00268976.2014.952696

 Q-Chem 5.3.0 for Intel X86 EM64T Linux

 Parts of Q-Chem use Armadillo 9.800.1 (Horizon Scraper).
 http://arma.sourceforge.net/

 Q-Chem begins on Mon Jul 13 15:25:24 2020  

Host: centos77-c5
0

     Scratch files written to /tmp/29025.centos77-h1/qchem130599//
Processing $rem in /opt/qchem-5.3.0-intel2020u1//config/preferences:
Processing $rem in /home/shihchengli/.qchemrc:

Checking the input file for inconsistencies... 	...done.

--------------------------------------------------------------
User input:
--------------------------------------------------------------
$rem
   JOBTYPE  sp
   EXCHANGE   omegaB97X-D
   BASIS   6-311+G(2df,2pd)
   UNRESTRICTED   True
   max_scf_cycles   250
   geom_opt_max_cycles   1500
   basis2 6-31G*
   scf_algorithm rca_diis
   SYM_IGNORE  TRUE
   print_input   true
   geom_opt_dmax   80
   pop_mulliken false
   XC_GRID 000075000302
$end

$molecule
0 3
N       0.7683831916     1.2668426791     2.4816513824
O       0.2929841968     2.1406346325     1.8301124092
O       1.7666487182     1.1909035835     3.1079123194
N       -0.0790252482     -1.2387840695     3.1348099746
O       -0.6233083145     -1.4472316914     4.1563650712
O       -0.1806914139     0.1826239757     2.3894487332
$end
--------------------------------------------------------------
 ----------------------------------------------------------------
             Standard Nuclear Orientation (Angstroms)
    I     Atom           X                Y                Z
 ----------------------------------------------------------------
    1      N       0.7683831916     1.2668426791     2.4816513824
    2      O       0.2929841968     2.1406346325     1.8301124092
    3      O       1.7666487182     1.1909035835     3.1079123194
    4      N      -0.0790252482    -1.2387840695     3.1348099746
    5      O      -0.6233083145    -1.4472316914     4.1563650712
    6      O      -0.1806914139     0.1826239757     2.3894487332
 ----------------------------------------------------------------
 Nuclear Repulsion Energy =         227.25807697 hartrees
 There are       24 alpha and       22 beta electrons
 Requested basis set is 6-311+G(2df,2pd)
 There are 48 shells and 204 basis functions

 Total QAlloc Memory Limit   2000 MB
 Mega-Array Size       188 MB
 MEM_STATIC part       192 MB

                       Distance Matrix (Angstroms)
             N (  1)   O (  2)   O (  3)   N (  4)   O (  5)
   O (  2)  1.189126
   O (  3)  1.180891  2.169435
   N (  4)  2.724497  3.641579  3.051331
   O (  5)  3.479608  4.373080  3.710917  1.176125
   O (  6)  1.443875  2.090701  2.307586  1.608198  2.444245
 
 A cutoff of  1.0D-09 yielded   1002 shell pairs
 There are     18577 function pairs (     24291 Cartesian)
 Smallest overlap matrix eigenvalue = 7.76E-04

 Scale SEOQF with 1.000000e-01/1.000000e-01/1.000000e-01

 Standard Electronic Orientation quadrupole field applied
 Nucleus-field energy     =    -0.0000000354 hartrees
 Requested basis set is 6-31G(d)
 There are 24 shells and 84 basis functions
 A cutoff of  1.0D-09 yielded    260 shell pairs
 There are      3428 function pairs (      3942 Cartesian)
 Smallest overlap matrix eigenvalue = 4.91E-03
 Guess from superposition of atomic densities
 Warning:  Energy on first SCF cycle will be non-variational
 SAD guess density has 46.000000 electrons
 Long-range K will be added via erf
 Coulomb attenuation parameter = 0.2 bohr**(-1)
 An unrestricted hybrid HF-DFT SCF calculation will be
 performed using Relaxed Constraint Minimization + Pulay DIIS
 Exchange:     0.2220 Hartree-Fock + 1.0000 wB97X-D + LR-HF
 Correlation:  1.0000 wB97X-D
 Using Euler-Maclaurin-Lebedev (75,302) quadrature formula
 Dispersion:   Grimme D
 SCF converges when DIIS error is below 1.0E-04
 using 6 threads for integral computing
 -------------------------------------------------------
 OpenMP Integral computing Module                
 Release: version 1.0, May 2013, Q-Chem Inc. Pittsburgh 
 -------------------------------------------------------
 using 6 threads for integral computing
 -------------------------------------------------------
 OpenMP Integral computing Module                
 Release: version 1.0, May 2013, Q-Chem Inc. Pittsburgh 
 -------------------------------------------------------
 ---------------------------------------
  Cycle       Energy         DIIS Error
 ---------------------------------------
    1    -411.0094274433      8.79E-02
    2    -409.6548453722      1.93E-02
    3    -409.7574511231      4.41E-03
    4    -409.9038315597      4.66E-03
    5    -409.9100088175      6.63E-04 Done RCA. Switching to DIIS
    6    -409.9182762989      5.77E-04
    7    -409.9186997661      1.14E-04
    8    -409.9187770718      5.88E-05 Convergence criterion met
 ---------------------------------------
 <S^2> = 2.0160
 SCF time:  CPU 14.28 s  wall 2.40 s
 SCF   energy in the small basis set = -409.91877707
 Total energy in the small basis set = -409.91877707
 ----------------------------------------------------
  Cycle       Energy    
 ----------------------------------------------------
    1     -41.7427881915     -4.17E+01
 Long-range K will be added via erf
 Coulomb attenuation parameter = 0.2 bohr**(-1)
 An unrestricted hybrid HF-DFT SCF calculation will be
 performed using Relaxed Constraint Minimization + Pulay DIIS
 Exchange:     0.2220 Hartree-Fock + 1.0000 wB97X-D + LR-HF
 Correlation:  1.0000 wB97X-D
 Using Euler-Maclaurin-Lebedev (75,302) quadrature formula
 Dispersion:   Grimme D
 SCF converges when DIIS error is below 1.0E-05
 Basis2 calculation detected. Using small basis as guess for larger.
 SCFMinFind is unable to tell whether the solution found is close.
 Resetting ReadMinima to 0 and attempting to follow guess.
 SCFMinFind following SCF Guess.
 using 6 threads for integral computing
 -------------------------------------------------------
 OpenMP Integral computing Module                
 Release: version 1.0, May 2013, Q-Chem Inc. Pittsburgh 
 -------------------------------------------------------
 using 6 threads for integral computing
 -------------------------------------------------------
 OpenMP Integral computing Module                
 Release: version 1.0, May 2013, Q-Chem Inc. Pittsburgh 
 -------------------------------------------------------
 ---------------------------------------
  Cycle       Energy         DIIS Error
 ---------------------------------------
    1    -410.0083280443      8.03E-03
    2    -410.0153987806      4.23E-03
    3    -410.0372676858      1.19E-03
    4    -410.0681669781      1.17E-03
    5    -410.0705888695      1.39E-04 Done RCA. Switching to DIIS
    6    -410.0741694625      1.39E-04
    7    -410.0742982200      5.30E-05
    8    -410.0743610468      1.93E-05
    9    -410.0743820354      1.10E-05
   10    -410.0743898503      5.62E-06 Convergence criterion met
 ---------------------------------------
 <S^2> = 2.0183
 SCF time:  CPU 62.72 s  wall 10.49 s
 SCF   energy in the final basis set = -410.07438985
 Total energy in the final basis set = -410.07438985
 
 --------------------------------------------------------------
 
                    Orbital Energies (a.u.)
 --------------------------------------------------------------
 
 Alpha MOs
 -- Occupied --
-19.4040 -19.3944 -19.3571 -19.3568 -14.7761 -14.6200  -1.4459  -1.3605
 -1.2677  -1.1973  -0.8851  -0.7734  -0.7234  -0.7191  -0.6840  -0.6508
 -0.6290  -0.6194  -0.5103  -0.4931  -0.4697  -0.4637  -0.4319  -0.3387
 -- Virtual --
 -0.0278   0.0056   0.0785   0.1137   0.1227   0.1334   0.1373   0.1672
  0.1773   0.1863   0.2235   0.2416   0.2431   0.2586   0.2704   0.2868
  0.2989   0.3246   0.3360   0.3439   0.3505   0.3607   0.3743   0.3933
  0.3969   0.4302   0.4486   0.4665   0.4938   0.5281   0.7470   0.7721
  0.8028   0.8258   0.8681   0.8809   0.9333   0.9400   0.9875   1.0118
  1.0309   1.0402   1.0607   1.0681   1.0787   1.0924   1.1086   1.1173
  1.1311   1.1413   1.1566   1.1705   1.2385   1.2560   1.2708   1.3884
  1.3930   1.5115   1.5227   1.5324   1.5547   1.5705   1.5827   1.6123
  1.6445   1.6594   1.7170   1.7888   1.8206   1.8813   1.9032   1.9564
  1.9786   2.1101   2.1655   2.2356   2.2904   2.3872   2.4490   2.4891
  2.5250   2.5692   2.6642   2.7831   3.4848   3.5372   3.6005   3.6097
  3.6357   3.6533   3.6589   3.7157   3.7292   3.7752   3.7928   3.8698
  3.9565   3.9744   4.0218   4.0709   4.1626   4.4198   4.4447   4.4847
  4.5241   4.5776   4.6516   4.6731   4.6907   4.7141   4.7447   4.7690
  4.8589   4.9266   4.9973   5.0078   5.0248   5.0253   5.0351   5.0397
  5.0592   5.0695   5.0825   5.0946   5.1211   5.1374   5.1417   5.1729
  5.2028   5.2765   5.3106   5.3712   5.4126   5.4316   5.4532   5.5030
  5.5187   5.5408   5.6136   5.6567   5.8370   5.8643   5.9159   6.1572
  6.4551   6.5353   6.6185   6.6250   6.6920   6.7261   6.7439   6.7554
  6.7783   6.8126   6.8585   6.9110   6.9243   6.9578   7.1023   7.1117
  7.1596   7.1637   7.2113   7.2322   7.2682   7.3652   7.4082   7.5243
  7.6837   7.7172   7.7896   7.8505   7.9476   8.2789  35.8973  36.1190
 49.9656  50.1573  50.2295  50.2540
 
 Beta MOs
 -- Occupied --
-19.3918 -19.3763 -19.3575 -19.3538 -14.7757 -14.6020  -1.4416  -1.3218
 -1.2643  -1.1650  -0.8439  -0.7450  -0.7170  -0.7014  -0.6764  -0.5901
 -0.5787  -0.5528  -0.4784  -0.4728  -0.4643  -0.4511
 -- Virtual --
 -0.1458  -0.0249  -0.0129   0.0519   0.0878   0.1213   0.1342   0.1409
  0.1464   0.1698   0.1811   0.1906   0.2242   0.2449   0.2467   0.2604
  0.2726   0.2899   0.3070   0.3258   0.3370   0.3460   0.3524   0.3639
  0.3760   0.3974   0.4095   0.4373   0.4525   0.4719   0.5083   0.5343
  0.7560   0.7772   0.8166   0.8450   0.8762   0.8958   0.9363   0.9469
  0.9990   1.0236   1.0365   1.0559   1.0713   1.0726   1.0905   1.1160
  1.1189   1.1268   1.1481   1.1542   1.1632   1.1768   1.2520   1.2666
  1.2825   1.3913   1.4141   1.5267   1.5301   1.5366   1.5651   1.5804
  1.5948   1.6326   1.6620   1.6807   1.7231   1.7985   1.8278   1.8917
  1.9082   1.9731   1.9937   2.1242   2.1784   2.2494   2.3054   2.3964
  2.4604   2.5061   2.5276   2.5749   2.6730   2.7877   3.5079   3.5740
  3.6128   3.6293   3.6504   3.6581   3.6716   3.7264   3.7515   3.8084
  3.8540   3.8835   3.9814   3.9965   4.0242   4.0878   4.1755   4.4225
  4.4471   4.4872   4.5326   4.6097   4.6560   4.7147   4.7215   4.7414
  4.7694   4.7992   4.9058   4.9741   5.0123   5.0229   5.0380   5.0398
  5.0528   5.0676   5.0800   5.0869   5.0896   5.1154   5.1274   5.1511
  5.1805   5.2074   5.2164   5.3010   5.3287   5.3768   5.4301   5.4474
  5.4673   5.5162   5.5374   5.5615   5.6307   5.6768   5.8436   5.8699
  5.9372   6.1773   6.4743   6.5386   6.6356   6.6654   6.7239   6.7586
  6.7845   6.7940   6.8075   6.8204   6.8655   6.9252   6.9398   6.9773
  7.1154   7.1361   7.1623   7.2016   7.2327   7.2527   7.2791   7.3727
  7.4343   7.5312   7.7126   7.7410   7.8008   7.8561   7.9690   8.2820
 35.9192  36.1196  49.9782  50.1743  50.2323  50.2538
 --------------------------------------------------------------
 
 -----------------------------------------------------------------
                    Cartesian Multipole Moments
 -----------------------------------------------------------------
    Charge (ESU x 10^10)
                -0.0000
    Dipole Moment (Debye)
         X      -0.0034      Y      -0.5274      Z       0.0904
       Tot       0.5350
    Quadrupole Moments (Debye-Ang)
        XX     -33.2211     XY      -0.6972     YY     -33.0793
        XZ      -1.1105     YZ      -0.0256     ZZ     -31.9811
    Octopole Moments (Debye-Ang^2)
       XXX     -34.3294    XXY     -12.8030    XYY     -11.2576
       YYY     -39.8137    XXZ     -96.6690    XYZ      -3.5175
       YYZ     -91.3937    XZZ     -15.1933    YZZ      -6.6216
       ZZZ    -275.7040
    Hexadecapole Moments (Debye-Ang^3)
      XXXX    -164.0357   XXXY     -77.7608   XXYY     -93.1252
      XYYY     -77.6165   YYYY    -389.0274   XXXZ     -86.8732
      XXYZ     -13.4664   XYYZ     -26.9127   YYYZ     -32.4636
      XXZZ    -327.2884   XYZZ     -38.9847   YYZZ    -340.4248
      XZZZ     -90.1300   YZZZ       7.3383   ZZZZ   -1703.0701
 -----------------------------------------------------------------
Archival summary:
1\1\centos77-c5\SP\ProcedureUnspecified\BasisUnspecified\42(3)\shihchen\MonJul1315:25:392020MonJul1315:25:392020\0\\#,ProcedureUnspecified,BasisUnspecified,\\0,3\N\O,1,1.18089\O,1,1.18913,2,132.516\O,1,1.44387,2,122.768,3,-179.411,0\N,4,1.6082,1,126.338,2,2.36669,0\O,5,1.17612,4,122.003,1,95.6949,0\\\@

 Total job time:  15.17s(wall), 81.22s(cpu) 
 Mon Jul 13 15:25:39 2020

        *************************************************************
        *                                                           *
        *  Thank you very much for using Q-Chem.  Have a nice day.  *
        *                                                           *
        *************************************************************


