                  Welcome to Q-Chem
     A Quantum Leap Into The Future Of Chemistry


 Q-Chem 5.3 (devel), Q-Chem, Inc., Pleasanton, CA (2020)

 Yihan Shao,  Zhengting Gan,  E. Epifanovsky,  A. T. B. Gilbert,  M. Wormit,  
 J. Kussmann,  A. W. Lange,  A. Behn,  Jia Deng,  Xintian Feng,  D. Ghosh,  
 M. Goldey,  P. R. Horn,  L. D. Jacobson,  I. Kaliman,  T. Kus,  A. Landau,  
 Jie Liu,  E. I. Proynov,  R. M. Richard,  R. P. Steele,  E. J. Sundstrom,  
 H. L. Woodcock III,  P. M. Zimmerman,  D. Zuev,  B. Alam,  B. Albrecht,  
 E. Alguire,  S. A. Baeppler,  D. Barton,  Z. Benda,  Y. A. Bernard,  
 E. J. Berquist,  K. B. Bravaya,  H. Burton,  K. Carter-Fenk,  D. Casanova,  
 Chun-Min Chang,  Yunqing Chen,  A. Chien,  K. D. Closser,  M. P. Coons,  
 S. Coriani,  S. Dasgupta,  A. L. Dempwolff,  M. Diedenhofen,  Hainam Do,  
 R. G. Edgar,  Po-Tung Fang,  S. Faraji,  S. Fatehi,  Qingguo Feng,  
 J. Fosso-Tande,  J. Gayvert,  Qinghui Ge,  A. Ghysels,  G. Gidofalvi,  
 J. Gomes,  J. Gonthier,  A. Gunina,  D. Hait,  M. W. D. Hanson-Heine,  
 P. H. P. Harbach,  A. W. Hauser,  M. F. Herbst,  J. E. Herr,  
 E. G. Hohenstein,  Z. C. Holden,  Kerwin Hui,  B. C. Huynh,  T.-C. Jagau,  
 Hyunjun Ji,  B. Kaduk,  K. Khistyaev,  Jaehoon Kim,  P. Klunzinger,  K. Koh,  
 D. Kosenkov,  L. Koulias,  T. Kowalczyk,  C. M. Krauter,  A. Kunitsa,  
 Ka Un Lao,  A. Laurent,  K. V. Lawler,  Joonho Lee,  D. Lefrancois,  
 S. Lehtola,  D. S. Levine,  Yi-Pei Li,  You-Sheng Lin,  Fenglai Liu,  
 Kuan-Yu Liu,  E. Livshits,  M. Loipersberger,  A. Luenser,  P. Manohar,  
 E. Mansoor,  S. F. Manzer,  Shan-Ping Mao,  Yuezhi Mao,  N. Mardirossian,  
 A. V. Marenich,  T. Markovich,  L. A. Martinez-Martinez,  S. A. Maurer,  
 N. J. Mayhall,  S. C. McKenzie,  J.-M. Mewes,  P. Morgante,  A. F. Morrison,  
 J. W. Mullinax,  K. Nanda,  T. S. Nguyen-Beck,  R. Olivares-Amaya,  
 K. J. Oosterbaan,  J. A. Parkhill,  S. K. Paul,  F. Pavosevic,  Zheng Pei,  
 T. M. Perrine,  F. Plasser,  P. Pokhilko,  S. Prager,  A. Prociuk,  
 E. Ramos,  B. Rana,  D. R. Rehn,  F. Rob,  M. Scheurer,  M. Schneider,  
 N. Sergueev,  S. M. Sharada,  S. Sharma,  D. W. Small,  T. Stauch,  
 C. J. Stein,  T. Stein,  Yu-Chuan Su,  S. P. Veccham,  Zhen Tao,  
 A. J. W. Thom,  A. Tkatchenko,  T. Tsuchimochi,  N. M. Tubman,  L. Vogt,  
 M. L. Vidal,  O. Vydrov,  M. A. Watson,  J. Wenzel,  M. de Wergifosse,  
 T. A. Wesolowski,  A. White,  J. Witte,  A. Yamada,  Jun Yang,  K. Yao,  
 S. Yeganeh,  S. R. Yost,  Zhi-Qiang You,  A. Zech,  Igor Ying Zhang,  
 Xing Zhang,  Yan Zhao,  Ying Zhu,  B. R. Brooks,  G. K. L. Chan,  
 C. J. Cramer,  M. S. Gordon,  W. J. Hehre,  A. Klamt,  M. W. Schmidt,  
 C. D. Sherrill,  D. G. Truhlar,  A. Aspuru-Guzik,  R. Baer,  A. T. Bell,  
 N. A. Besley,  Jeng-Da Chai,  A. E. DePrince, III,  R. A. DiStasio Jr.,  
 A. Dreuw,  B. D. Dunietz,  T. R. Furlani,  Chao-Ping Hsu,  Yousung Jung,  
 Jing Kong,  D. S. Lambrecht,  WanZhen Liang,  C. Ochsenfeld,  
 V. A. Rassolov,  L. V. Slipchenko,  J. E. Subotnik,  T. Van Voorhis,  
 J. M. Herbert,  A. I. Krylov,  P. M. W. Gill,  M. Head-Gordon

 Contributors to earlier versions of Q-Chem not listed above: 
 R. D. Adamson,  B. Austin,  J. Baker,  G. J. O. Beran,  K. Brandhorst,  
 S. T. Brown,  E. F. C. Byrd,  A. K. Chakraborty,  C.-L. Cheng,  
 Siu Hung Chien,  D. M. Chipman,  D. L. Crittenden,  H. Dachsel,  
 R. J. Doerksen,  A. D. Dutoi,  L. Fusti-Molnar,  W. A. Goddard III,  
 A. Golubeva-Zadorozhnaya,  S. R. Gwaltney,  G. Hawkins,  A. Heyden,  
 S. Hirata,  G. Kedziora,  F. J. Keil,  C. Kelley,  Jihan Kim,  R. A. King,  
 R. Z. Khaliullin,  P. P. Korambath,  W. Kurlancheek,  A. M. Lee,  M. S. Lee,  
 S. V. Levchenko,  Ching Yeh Lin,  D. Liotard,  R. C. Lochan,  I. Lotan,  
 P. E. Maslen,  N. Nair,  D. P. O'Neill,  D. Neuhauser,  E. Neuscamman,  
 C. M. Oana,  R. Olson,  B. Peters,  R. Peverati,  P. A. Pieniazek,  
 Y. M. Rhee,  J. Ritchie,  M. A. Rohrdanz,  E. Rosta,  N. J. Russ,  
 H. F. Schaefer III,  N. E. Schultz,  N. Shenvi,  A. C. Simmonett,  A. Sodt,  
 D. Stuck,  K. S. Thanthiriwatte,  V. Vanovschi,  Tao Wang,  A. Warshel,  
 C. F. Williams,  Q. Wu,  X. Xu,  W. Zhang

 Please cite Q-Chem as follows:
 Y. Shao et al., Mol. Phys. 113, 184-215 (2015)
 DOI: 10.1080/00268976.2014.952696

 Q-Chem 5.3.0 for Intel X86 EM64T Linux

 Parts of Q-Chem use Armadillo 9.800.1 (Horizon Scraper).
 http://arma.sourceforge.net/

 Q-Chem begins on Mon Jul 13 15:45:51 2020  

Host: centos77-c5
0

     Scratch files written to /tmp/29025.centos77-h1/qchem103639//
Processing $rem in /opt/qchem-5.3.0-intel2020u1//config/preferences:
Processing $rem in /home/shihchengli/.qchemrc:

Checking the input file for inconsistencies... 	...done.

--------------------------------------------------------------
User input:
--------------------------------------------------------------
$rem
   JOBTYPE  sp
   EXCHANGE   omegaB97X-D
   BASIS   6-311+G(2df,2pd)
   UNRESTRICTED   True
   max_scf_cycles   250
   geom_opt_max_cycles   1500
   basis2 6-31G*
   scf_algorithm rca_diis
   SYM_IGNORE  TRUE
   print_input   true
   geom_opt_dmax   80
   pop_mulliken false
   XC_GRID 000075000302
$end

$molecule
0 3
N       0.7142438245     1.2453898482     2.4802487195
O       0.3891573788     2.1391877521     1.8841038249
O       1.5663256315     0.9898660148     3.1644378856
N       0.0369552384     -1.1541233508     3.1388619995
O       -0.4798344908     -1.3269090422     4.1772128816
O       -0.2818564524     0.2015778878     2.2554345790
$end
--------------------------------------------------------------
 ----------------------------------------------------------------
             Standard Nuclear Orientation (Angstroms)
    I     Atom           X                Y                Z
 ----------------------------------------------------------------
    1      N       0.7142438245     1.2453898482     2.4802487195
    2      O       0.3891573788     2.1391877521     1.8841038249
    3      O       1.5663256315     0.9898660148     3.1644378856
    4      N       0.0369552384    -1.1541233508     3.1388619995
    5      O      -0.4798344908    -1.3269090422     4.1772128816
    6      O      -0.2818564524     0.2015778878     2.2554345790
 ----------------------------------------------------------------
 Nuclear Repulsion Energy =         234.97051286 hartrees
 There are       24 alpha and       22 beta electrons
 Requested basis set is 6-311+G(2df,2pd)
 There are 48 shells and 204 basis functions

 Total QAlloc Memory Limit   2000 MB
 Mega-Array Size       188 MB
 MEM_STATIC part       192 MB

                       Distance Matrix (Angstroms)
             N (  1)   O (  2)   O (  3)   N (  4)   O (  5)
   O (  2)  1.122473
   O (  3)  1.122252  2.084687
   N (  4)  2.578789  3.541802  2.633689
   O (  5)  3.304880  4.245860  3.252681  1.172646
   O (  6)  1.460240  2.083861  2.205326  1.649246  2.463473
 
 A cutoff of  1.0D-09 yielded   1028 shell pairs
 There are     19184 function pairs (     25145 Cartesian)
 Smallest overlap matrix eigenvalue = 6.04E-04

 Scale SEOQF with 1.000000e-01/1.000000e-01/1.000000e-01

 Standard Electronic Orientation quadrupole field applied
 Nucleus-field energy     =    -0.0000000363 hartrees
 Requested basis set is 6-31G(d)
 There are 24 shells and 84 basis functions
 A cutoff of  1.0D-09 yielded    269 shell pairs
 There are      3538 function pairs (      4066 Cartesian)
 Smallest overlap matrix eigenvalue = 3.73E-03
 Guess from superposition of atomic densities
 Warning:  Energy on first SCF cycle will be non-variational
 SAD guess density has 46.000000 electrons
 Long-range K will be added via erf
 Coulomb attenuation parameter = 0.2 bohr**(-1)
 An unrestricted hybrid HF-DFT SCF calculation will be
 performed using Relaxed Constraint Minimization + Pulay DIIS
 Exchange:     0.2220 Hartree-Fock + 1.0000 wB97X-D + LR-HF
 Correlation:  1.0000 wB97X-D
 Using Euler-Maclaurin-Lebedev (75,302) quadrature formula
 Dispersion:   Grimme D
 SCF converges when DIIS error is below 1.0E-04
 using 6 threads for integral computing
 -------------------------------------------------------
 OpenMP Integral computing Module                
 Release: version 1.0, May 2013, Q-Chem Inc. Pittsburgh 
 -------------------------------------------------------
 using 6 threads for integral computing
 -------------------------------------------------------
 OpenMP Integral computing Module                
 Release: version 1.0, May 2013, Q-Chem Inc. Pittsburgh 
 -------------------------------------------------------
 ---------------------------------------
  Cycle       Energy         DIIS Error
 ---------------------------------------
    1    -411.3231615485      9.62E-02
    2    -409.6764164117      1.84E-02
    3    -409.7712978762      3.49E-03
    4    -409.8987088077      3.21E-03
    5    -409.9017806408      5.60E-04 Done RCA. Switching to DIIS
    6    -409.9061675154      4.90E-04
    7    -409.9065099231      7.09E-05 Convergence criterion met
 ---------------------------------------
 <S^2> = 2.0158
 SCF time:  CPU 13.07 s  wall 2.19 s
 SCF   energy in the small basis set = -409.90650992
 Total energy in the small basis set = -409.90650992
 ----------------------------------------------------
  Cycle       Energy    
 ----------------------------------------------------
    1     -41.8643064801     -4.19E+01
 Long-range K will be added via erf
 Coulomb attenuation parameter = 0.2 bohr**(-1)
 An unrestricted hybrid HF-DFT SCF calculation will be
 performed using Relaxed Constraint Minimization + Pulay DIIS
 Exchange:     0.2220 Hartree-Fock + 1.0000 wB97X-D + LR-HF
 Correlation:  1.0000 wB97X-D
 Using Euler-Maclaurin-Lebedev (75,302) quadrature formula
 Dispersion:   Grimme D
 SCF converges when DIIS error is below 1.0E-05
 Basis2 calculation detected. Using small basis as guess for larger.
 SCFMinFind is unable to tell whether the solution found is close.
 Resetting ReadMinima to 0 and attempting to follow guess.
 SCFMinFind following SCF Guess.
 using 6 threads for integral computing
 -------------------------------------------------------
 OpenMP Integral computing Module                
 Release: version 1.0, May 2013, Q-Chem Inc. Pittsburgh 
 -------------------------------------------------------
 using 6 threads for integral computing
 -------------------------------------------------------
 OpenMP Integral computing Module                
 Release: version 1.0, May 2013, Q-Chem Inc. Pittsburgh 
 -------------------------------------------------------
 ---------------------------------------
  Cycle       Energy         DIIS Error
 ---------------------------------------
    1    -410.0075954449      7.97E-03
    2    -410.0275873020      3.54E-03
    3    -410.0433219799      8.40E-04 Done RCA. Switching to DIIS
    4    -410.0647671527      7.81E-04
    5    -410.0667037610      1.63E-04
    6    -410.0668773260      4.18E-05
    7    -410.0669449647      2.30E-05
    8    -410.0669599777      1.40E-05
    9    -410.0669686969      5.18E-06 Convergence criterion met
 ---------------------------------------
 <S^2> = 2.0186
 SCF time:  CPU 54.61 s  wall 9.13 s
 SCF   energy in the final basis set = -410.06696870
 Total energy in the final basis set = -410.06696870
 
 --------------------------------------------------------------
 
                    Orbital Energies (a.u.)
 --------------------------------------------------------------
 
 Alpha MOs
 -- Occupied --
-19.3889 -19.3874 -19.3536 -19.3501 -14.7732 -14.6097  -1.4961  -1.3561
 -1.3182  -1.1891  -0.8613  -0.7687  -0.7517  -0.7310  -0.6903  -0.6532
 -0.6293  -0.6225  -0.5016  -0.4865  -0.4804  -0.4651  -0.4329  -0.3312
 -- Virtual --
  0.0033   0.0208   0.0761   0.1159   0.1222   0.1349   0.1381   0.1682
  0.1801   0.1838   0.2277   0.2430   0.2512   0.2731   0.2765   0.2917
  0.3061   0.3260   0.3472   0.3514   0.3561   0.3630   0.3733   0.3966
  0.4243   0.4330   0.4593   0.4672   0.4985   0.6358   0.7437   0.7664
  0.8046   0.8310   0.8642   0.8782   0.9164   0.9467   0.9775   1.0180
  1.0268   1.0508   1.0554   1.0695   1.0760   1.0886   1.1265   1.1341
  1.1455   1.1629   1.1762   1.1798   1.2314   1.2514   1.2646   1.3170
  1.4502   1.4555   1.5161   1.5477   1.5601   1.5964   1.6083   1.6374
  1.6576   1.6937   1.7259   1.8117   1.8599   1.9272   1.9462   1.9882
  2.0181   2.1422   2.2141   2.2665   2.3332   2.4186   2.4751   2.5095
  2.5806   2.6105   2.7277   2.8968   3.5063   3.5486   3.5752   3.6162
  3.6340   3.6461   3.6691   3.6956   3.7533   3.7877   3.8077   3.8975
  3.9480   3.9829   4.0576   4.0610   4.1477   4.2938   4.3668   4.4103
  4.5543   4.6259   4.6421   4.6820   4.6932   4.7289   4.7578   4.8015
  4.8258   4.9209   4.9959   5.0043   5.0230   5.0236   5.0311   5.0345
  5.0641   5.0794   5.0995   5.1210   5.1287   5.1600   5.1899   5.1958
  5.2872   5.3164   5.3331   5.4165   5.4471   5.4715   5.5013   5.5510
  5.5897   5.6171   5.6592   5.7102   5.8438   5.9147   6.0684   6.1364
  6.5929   6.6338   6.6459   6.6877   6.7367   6.7466   6.7525   6.7861
  6.8114   6.8190   6.9040   6.9646   7.0483   7.0956   7.1344   7.1742
  7.2048   7.2920   7.3286   7.3672   7.3957   7.4383   7.4584   7.5784
  7.6882   7.6999   7.8648   7.9353   7.9606   8.7530  35.9147  36.3696
 50.0036  50.1691  50.3354  50.4648
 
 Beta MOs
 -- Occupied --
-19.3741 -19.3710 -19.3517 -19.3504 -14.7729 -14.5919  -1.4933  -1.3187
 -1.3153  -1.1535  -0.8186  -0.7504  -0.7402  -0.7143  -0.6854  -0.5987
 -0.5726  -0.5504  -0.4832  -0.4716  -0.4618  -0.4576
 -- Virtual --
 -0.1359  -0.0022   0.0061   0.0700   0.0877   0.1237   0.1332   0.1407
  0.1421   0.1703   0.1833   0.1893   0.2288   0.2470   0.2544   0.2748
  0.2796   0.2940   0.3134   0.3280   0.3489   0.3523   0.3587   0.3648
  0.3759   0.4089   0.4294   0.4367   0.4639   0.4694   0.5165   0.6420
  0.7498   0.7767   0.8198   0.8480   0.8782   0.8841   0.9191   0.9533
  0.9882   1.0256   1.0365   1.0574   1.0643   1.0838   1.0957   1.1059
  1.1383   1.1446   1.1557   1.1694   1.1872   1.1944   1.2435   1.2634
  1.2755   1.3306   1.4655   1.4703   1.5203   1.5505   1.5647   1.6073
  1.6302   1.6590   1.6740   1.7203   1.7350   1.8158   1.8678   1.9430
  1.9509   2.0018   2.0314   2.1593   2.2234   2.2812   2.3471   2.4306
  2.4870   2.5256   2.5828   2.6156   2.7343   2.9002   3.5297   3.5844
  3.5854   3.6340   3.6435   3.6588   3.6753   3.7180   3.7710   3.8161
  3.8706   3.9167   3.9691   4.0052   4.0734   4.0793   4.1482   4.2950
  4.3690   4.4157   4.5698   4.6447   4.6546   4.7098   4.7278   4.7597
  4.7809   4.8285   4.8716   4.9719   5.0089   5.0188   5.0294   5.0298
  5.0586   5.0720   5.0820   5.0853   5.1259   5.1365   5.1439   5.1907
  5.2164   5.2267   5.3140   5.3288   5.3504   5.4331   5.4611   5.4798
  5.5293   5.5727   5.6014   5.6283   5.6837   5.7160   5.8491   5.9193
  6.0939   6.1691   6.6011   6.6529   6.6892   6.7141   6.7552   6.7908
  6.8020   6.8091   6.8181   6.8256   6.9074   6.9973   7.0656   7.1183
  7.1367   7.2116   7.2359   7.3089   7.3325   7.3680   7.4186   7.4432
  7.4841   7.5890   7.7178   7.7281   7.8781   7.9442   7.9655   8.7553
 35.9363  36.3700  50.0178  50.1859  50.3364  50.4655
 --------------------------------------------------------------
 
 -----------------------------------------------------------------
                    Cartesian Multipole Moments
 -----------------------------------------------------------------
    Charge (ESU x 10^10)
                 0.0000
    Dipole Moment (Debye)
         X       0.2033      Y      -0.0841      Z       0.0095
       Tot       0.2202
    Quadrupole Moments (Debye-Ang)
        XX     -32.4765     XY      -0.4765     YY     -32.3582
        XZ      -0.6533     YZ       0.9721     ZZ     -32.4341
    Octopole Moments (Debye-Ang^2)
       XXX     -32.3162    XXY     -11.6920    XYY     -10.2986
       YYY     -37.6179    XXZ     -94.5892    XYZ      -2.9146
       YYZ     -89.2618    XZZ     -14.1054    YZZ      -4.1165
       ZZZ    -277.8951
    Hexadecapole Moments (Debye-Ang^3)
      XXXX    -135.0701   XXXY     -61.4141   XXYY     -80.7796
      XYYY     -63.1028   YYYY    -354.0028   XXXZ     -85.9857
      XXYZ     -12.0880   XYYZ     -25.4643   YYYZ     -30.7035
      XXZZ    -317.6191   XYZZ     -32.7650   YYZZ    -328.3895
      XZZZ     -91.6255   YZZZ      10.0663   ZZZZ   -1717.4530
 -----------------------------------------------------------------
Archival summary:
1\1\centos77-c5\SP\ProcedureUnspecified\BasisUnspecified\42(3)\shihchen\MonJul1315:46:042020MonJul1315:46:042020\0\\#,ProcedureUnspecified,BasisUnspecified,\\0,3\N\O,1,1.12225\O,1,1.12247,2,136.468\O,1,1.46024,2,116.682,3,-179.655,0\N,4,1.64925,1,111.917,2,2.56721,0\O,5,1.17265,4,120.68,1,95.6949,0\\\@

 Total job time:  13.63s(wall), 71.73s(cpu) 
 Mon Jul 13 15:46:04 2020

        *************************************************************
        *                                                           *
        *  Thank you very much for using Q-Chem.  Have a nice day.  *
        *                                                           *
        *************************************************************


