                  Welcome to Q-Chem
     A Quantum Leap Into The Future Of Chemistry


 Q-Chem 5.3 (devel), Q-Chem, Inc., Pleasanton, CA (2020)

 Yihan Shao,  Zhengting Gan,  E. Epifanovsky,  A. T. B. Gilbert,  M. Wormit,  
 J. Kussmann,  A. W. Lange,  A. Behn,  Jia Deng,  Xintian Feng,  D. Ghosh,  
 M. Goldey,  P. R. Horn,  L. D. Jacobson,  I. Kaliman,  T. Kus,  A. Landau,  
 Jie Liu,  E. I. Proynov,  R. M. Richard,  R. P. Steele,  E. J. Sundstrom,  
 H. L. Woodcock III,  P. M. Zimmerman,  D. Zuev,  B. Alam,  B. Albrecht,  
 E. Alguire,  S. A. Baeppler,  D. Barton,  Z. Benda,  Y. A. Bernard,  
 E. J. Berquist,  K. B. Bravaya,  H. Burton,  K. Carter-Fenk,  D. Casanova,  
 Chun-Min Chang,  Yunqing Chen,  A. Chien,  K. D. Closser,  M. P. Coons,  
 S. Coriani,  S. Dasgupta,  A. L. Dempwolff,  M. Diedenhofen,  Hainam Do,  
 R. G. Edgar,  Po-Tung Fang,  S. Faraji,  S. Fatehi,  Qingguo Feng,  
 J. Fosso-Tande,  J. Gayvert,  Qinghui Ge,  A. Ghysels,  G. Gidofalvi,  
 J. Gomes,  J. Gonthier,  A. Gunina,  D. Hait,  M. W. D. Hanson-Heine,  
 P. H. P. Harbach,  A. W. Hauser,  M. F. Herbst,  J. E. Herr,  
 E. G. Hohenstein,  Z. C. Holden,  Kerwin Hui,  B. C. Huynh,  T.-C. Jagau,  
 Hyunjun Ji,  B. Kaduk,  K. Khistyaev,  Jaehoon Kim,  P. Klunzinger,  K. Koh,  
 D. Kosenkov,  L. Koulias,  T. Kowalczyk,  C. M. Krauter,  A. Kunitsa,  
 Ka Un Lao,  A. Laurent,  K. V. Lawler,  Joonho Lee,  D. Lefrancois,  
 S. Lehtola,  D. S. Levine,  Yi-Pei Li,  You-Sheng Lin,  Fenglai Liu,  
 Kuan-Yu Liu,  E. Livshits,  M. Loipersberger,  A. Luenser,  P. Manohar,  
 E. Mansoor,  S. F. Manzer,  Shan-Ping Mao,  Yuezhi Mao,  N. Mardirossian,  
 A. V. Marenich,  T. Markovich,  L. A. Martinez-Martinez,  S. A. Maurer,  
 N. J. Mayhall,  S. C. McKenzie,  J.-M. Mewes,  P. Morgante,  A. F. Morrison,  
 J. W. Mullinax,  K. Nanda,  T. S. Nguyen-Beck,  R. Olivares-Amaya,  
 K. J. Oosterbaan,  J. A. Parkhill,  S. K. Paul,  F. Pavosevic,  Zheng Pei,  
 T. M. Perrine,  F. Plasser,  P. Pokhilko,  S. Prager,  A. Prociuk,  
 E. Ramos,  B. Rana,  D. R. Rehn,  F. Rob,  M. Scheurer,  M. Schneider,  
 N. Sergueev,  S. M. Sharada,  S. Sharma,  D. W. Small,  T. Stauch,  
 C. J. Stein,  T. Stein,  Yu-Chuan Su,  S. P. Veccham,  Zhen Tao,  
 A. J. W. Thom,  A. Tkatchenko,  T. Tsuchimochi,  N. M. Tubman,  L. Vogt,  
 M. L. Vidal,  O. Vydrov,  M. A. Watson,  J. Wenzel,  M. de Wergifosse,  
 T. A. Wesolowski,  A. White,  J. Witte,  A. Yamada,  Jun Yang,  K. Yao,  
 S. Yeganeh,  S. R. Yost,  Zhi-Qiang You,  A. Zech,  Igor Ying Zhang,  
 Xing Zhang,  Yan Zhao,  Ying Zhu,  B. R. Brooks,  G. K. L. Chan,  
 C. J. Cramer,  M. S. Gordon,  W. J. Hehre,  A. Klamt,  M. W. Schmidt,  
 C. D. Sherrill,  D. G. Truhlar,  A. Aspuru-Guzik,  R. Baer,  A. T. Bell,  
 N. A. Besley,  Jeng-Da Chai,  A. E. DePrince, III,  R. A. DiStasio Jr.,  
 A. Dreuw,  B. D. Dunietz,  T. R. Furlani,  Chao-Ping Hsu,  Yousung Jung,  
 Jing Kong,  D. S. Lambrecht,  WanZhen Liang,  C. Ochsenfeld,  
 V. A. Rassolov,  L. V. Slipchenko,  J. E. Subotnik,  T. Van Voorhis,  
 J. M. Herbert,  A. I. Krylov,  P. M. W. Gill,  M. Head-Gordon

 Contributors to earlier versions of Q-Chem not listed above: 
 R. D. Adamson,  B. Austin,  J. Baker,  G. J. O. Beran,  K. Brandhorst,  
 S. T. Brown,  E. F. C. Byrd,  A. K. Chakraborty,  C.-L. Cheng,  
 Siu Hung Chien,  D. M. Chipman,  D. L. Crittenden,  H. Dachsel,  
 R. J. Doerksen,  A. D. Dutoi,  L. Fusti-Molnar,  W. A. Goddard III,  
 A. Golubeva-Zadorozhnaya,  S. R. Gwaltney,  G. Hawkins,  A. Heyden,  
 S. Hirata,  G. Kedziora,  F. J. Keil,  C. Kelley,  Jihan Kim,  R. A. King,  
 R. Z. Khaliullin,  P. P. Korambath,  W. Kurlancheek,  A. M. Lee,  M. S. Lee,  
 S. V. Levchenko,  Ching Yeh Lin,  D. Liotard,  R. C. Lochan,  I. Lotan,  
 P. E. Maslen,  N. Nair,  D. P. O'Neill,  D. Neuhauser,  E. Neuscamman,  
 C. M. Oana,  R. Olson,  B. Peters,  R. Peverati,  P. A. Pieniazek,  
 Y. M. Rhee,  J. Ritchie,  M. A. Rohrdanz,  E. Rosta,  N. J. Russ,  
 H. F. Schaefer III,  N. E. Schultz,  N. Shenvi,  A. C. Simmonett,  A. Sodt,  
 D. Stuck,  K. S. Thanthiriwatte,  V. Vanovschi,  Tao Wang,  A. Warshel,  
 C. F. Williams,  Q. Wu,  X. Xu,  W. Zhang

 Please cite Q-Chem as follows:
 Y. Shao et al., Mol. Phys. 113, 184-215 (2015)
 DOI: 10.1080/00268976.2014.952696

 Q-Chem 5.3.0 for Intel X86 EM64T Linux

 Parts of Q-Chem use Armadillo 9.800.1 (Horizon Scraper).
 http://arma.sourceforge.net/

 Q-Chem begins on Mon Jul 13 15:47:49 2020  

Host: centos77-c5
0

     Scratch files written to /tmp/29025.centos77-h1/qchem8092//
Processing $rem in /opt/qchem-5.3.0-intel2020u1//config/preferences:
Processing $rem in /home/shihchengli/.qchemrc:

Checking the input file for inconsistencies... 	...done.

--------------------------------------------------------------
User input:
--------------------------------------------------------------
$rem
   JOBTYPE  sp
   EXCHANGE   omegaB97X-D
   BASIS   6-311+G(2df,2pd)
   UNRESTRICTED   True
   max_scf_cycles   250
   geom_opt_max_cycles   1500
   basis2 6-31G*
   scf_algorithm rca_diis
   SYM_IGNORE  TRUE
   print_input   true
   geom_opt_dmax   80
   pop_mulliken false
   XC_GRID 000075000302
$end

$molecule
0 3
N       0.6169435112     1.1195801669     2.4700896792
O       0.3718181665     2.2814738079     1.8072487160
O       1.6908838974     0.9844329250     3.2536312868
N       0.0291083429     -1.1476940691     3.1410825078
O       -0.4722502731     -1.3267228193     4.1691913800
O       -0.2915125147     0.1839190984     2.2590563201
$end
--------------------------------------------------------------
 ----------------------------------------------------------------
             Standard Nuclear Orientation (Angstroms)
    I     Atom           X                Y                Z
 ----------------------------------------------------------------
    1      N       0.6169435112     1.1195801669     2.4700896792
    2      O       0.3718181665     2.2814738079     1.8072487160
    3      O       1.6908838974     0.9844329250     3.2536312868
    4      N       0.0291083429    -1.1476940691     3.1410825078
    5      O      -0.4722502731    -1.3267228193     4.1691913800
    6      O      -0.2915125147     0.1839190984     2.2590563201
 ----------------------------------------------------------------
 Nuclear Repulsion Energy =         224.86162173 hartrees
 There are       24 alpha and       22 beta electrons
 Requested basis set is 6-311+G(2df,2pd)
 There are 48 shells and 204 basis functions

 Total QAlloc Memory Limit   2000 MB
 Mega-Array Size       188 MB
 MEM_STATIC part       192 MB

                       Distance Matrix (Angstroms)
             N (  1)   O (  2)   O (  3)   N (  4)   O (  5)
   O (  2)  1.359942
   O (  3)  1.336245  2.348249
   N (  4)  2.436455  3.695369  2.705574
   O (  5)  3.171386  4.394350  3.295275  1.157765
   O (  6)  1.321094  2.245857  2.357943  1.629098  2.441991
 
 A cutoff of  1.0D-09 yielded   1017 shell pairs
 There are     18979 function pairs (     24911 Cartesian)
 Smallest overlap matrix eigenvalue = 6.17E-04

 Scale SEOQF with 1.000000e-01/1.000000e-01/1.000000e-01

 Standard Electronic Orientation quadrupole field applied
 Nucleus-field energy     =    -0.0000000362 hartrees
 Requested basis set is 6-31G(d)
 There are 24 shells and 84 basis functions
 A cutoff of  1.0D-09 yielded    266 shell pairs
 There are      3498 function pairs (      4022 Cartesian)
 Smallest overlap matrix eigenvalue = 8.09E-03
 Guess from superposition of atomic densities
 Warning:  Energy on first SCF cycle will be non-variational
 SAD guess density has 46.000000 electrons
 Long-range K will be added via erf
 Coulomb attenuation parameter = 0.2 bohr**(-1)
 An unrestricted hybrid HF-DFT SCF calculation will be
 performed using Relaxed Constraint Minimization + Pulay DIIS
 Exchange:     0.2220 Hartree-Fock + 1.0000 wB97X-D + LR-HF
 Correlation:  1.0000 wB97X-D
 Using Euler-Maclaurin-Lebedev (75,302) quadrature formula
 Dispersion:   Grimme D
 SCF converges when DIIS error is below 1.0E-04
 using 6 threads for integral computing
 -------------------------------------------------------
 OpenMP Integral computing Module                
 Release: version 1.0, May 2013, Q-Chem Inc. Pittsburgh 
 -------------------------------------------------------
 using 6 threads for integral computing
 -------------------------------------------------------
 OpenMP Integral computing Module                
 Release: version 1.0, May 2013, Q-Chem Inc. Pittsburgh 
 -------------------------------------------------------
 ---------------------------------------
  Cycle       Energy         DIIS Error
 ---------------------------------------
    1    -410.5427069491      7.75E-02
    2    -409.4832770950      2.26E-02
    3    -409.6092086066      7.88E-03
    4    -409.7997441895      5.21E-03
    5    -409.8343748140      4.24E-03
    6    -409.8491732822      1.81E-03
    7    -409.8657682528      3.48E-03
    8    -409.8687465534      9.67E-04 Done RCA. Switching to DIIS
    9    -409.8720046957      1.82E-03
   10    -409.8743027635      7.41E-05 Convergence criterion met
 ---------------------------------------
 <S^2> = 2.0170
 SCF time:  CPU 19.28 s  wall 3.23 s
 SCF   energy in the small basis set = -409.87430276
 Total energy in the small basis set = -409.87430276
 ----------------------------------------------------
  Cycle       Energy    
 ----------------------------------------------------
    1     -41.5766208302     -4.16E+01
 Long-range K will be added via erf
 Coulomb attenuation parameter = 0.2 bohr**(-1)
 An unrestricted hybrid HF-DFT SCF calculation will be
 performed using Relaxed Constraint Minimization + Pulay DIIS
 Exchange:     0.2220 Hartree-Fock + 1.0000 wB97X-D + LR-HF
 Correlation:  1.0000 wB97X-D
 Using Euler-Maclaurin-Lebedev (75,302) quadrature formula
 Dispersion:   Grimme D
 SCF converges when DIIS error is below 1.0E-05
 Basis2 calculation detected. Using small basis as guess for larger.
 SCFMinFind is unable to tell whether the solution found is close.
 Resetting ReadMinima to 0 and attempting to follow guess.
 SCFMinFind following SCF Guess.
 using 6 threads for integral computing
 -------------------------------------------------------
 OpenMP Integral computing Module                
 Release: version 1.0, May 2013, Q-Chem Inc. Pittsburgh 
 -------------------------------------------------------
 using 6 threads for integral computing
 -------------------------------------------------------
 OpenMP Integral computing Module                
 Release: version 1.0, May 2013, Q-Chem Inc. Pittsburgh 
 -------------------------------------------------------
 ---------------------------------------
  Cycle       Energy         DIIS Error
 ---------------------------------------
    1    -409.8392453426      9.06E-03
    2    -409.4584798913      1.18E-02
    3    -409.5945925528      6.09E-03
    4    -409.7119822577      1.65E-03
    5    -409.9132848871      4.90E-03
    6    -409.9452230621      1.83E-03
    7    -409.9714034062      1.33E-03
    8    -409.9915147505      1.40E-03
    9    -410.0014141714      5.40E-04 Done RCA. Switching to DIIS
   10    -410.0165679899      1.40E-03
   11    -410.0247679403      2.88E-04
   12    -410.0250595760      3.02E-04
   13    -410.0257909848      2.16E-04
   14    -410.0266463878      8.32E-05
   15    -410.0266729867      1.24E-05
   16    -410.0266840250      1.12E-05
   17    -410.0266860155      8.21E-06 Convergence criterion met
 ---------------------------------------
 <S^2> = 2.0192
 SCF time:  CPU 109.32 s  wall 18.26 s
 SCF   energy in the final basis set = -410.02668602
 Total energy in the final basis set = -410.02668602
 
 --------------------------------------------------------------
 
                    Orbital Energies (a.u.)
 --------------------------------------------------------------
 
 Alpha MOs
 -- Occupied --
-19.4588 -19.4198 -19.3478 -19.3468 -14.7696 -14.6401  -1.4090  -1.3754
 -1.2129  -1.1478  -0.9108  -0.8002  -0.7206  -0.6984  -0.6900  -0.6573
 -0.6421  -0.6201  -0.5052  -0.4987  -0.4592  -0.4328  -0.4262  -0.3562
 -- Virtual --
 -0.0738  -0.0095   0.0641   0.1078   0.1299   0.1331   0.1359   0.1624
  0.1811   0.1904   0.2180   0.2288   0.2391   0.2458   0.2573   0.2797
  0.3011   0.3071   0.3161   0.3304   0.3365   0.3451   0.3540   0.3627
  0.3801   0.3853   0.4287   0.4450   0.4772   0.4904   0.7226   0.7554
  0.8029   0.8201   0.8561   0.8706   0.9448   0.9568   0.9744   0.9896
  1.0165   1.0361   1.0582   1.0631   1.0895   1.1040   1.1169   1.1321
  1.1478   1.1512   1.1544   1.1603   1.1966   1.2215   1.2617   1.3269
  1.4480   1.4891   1.5099   1.5413   1.5584   1.5814   1.5931   1.6189
  1.6329   1.6369   1.6887   1.7202   1.7360   1.8193   1.8623   1.8757
  1.9532   2.0957   2.1358   2.1728   2.2541   2.3602   2.3862   2.3930
  2.4820   2.5132   2.5979   2.6252   3.4895   3.5111   3.5633   3.6015
  3.6275   3.6420   3.6724   3.7093   3.7208   3.7533   3.7792   3.8283
  3.8755   3.9477   4.0059   4.0320   4.1627   4.1937   4.2355   4.5739
  4.6213   4.6467   4.6664   4.6790   4.6881   4.7594   4.8032   4.8319
  4.8586   4.8833   4.9868   4.9945   5.0093   5.0347   5.0595   5.0669
  5.0752   5.0796   5.0801   5.0927   5.0999   5.1034   5.1220   5.1343
  5.1703   5.1906   5.2200   5.2813   5.2997   5.3163   5.3634   5.4624
  5.5112   5.5678   5.6224   5.6777   5.7559   5.8351   5.9402   5.9549
  6.0547   6.1366   6.1612   6.3379   6.6806   6.6932   6.7134   6.7232
  6.7802   6.7978   6.8119   6.8318   6.8408   6.9407   7.0320   7.0682
  7.0869   7.1232   7.1447   7.1569   7.1652   7.2004   7.3049   7.4333
  7.4734   7.5609   7.6951   7.7367   7.8770   7.8991  35.6665  35.9231
 49.9950  50.0200  50.0559  50.1664
 
 Beta MOs
 -- Occupied --
-19.4461 -19.4021 -19.3475 -19.3441 -14.7697 -14.6213  -1.3818  -1.3486
 -1.1957  -1.1418  -0.8682  -0.7612  -0.6951  -0.6789  -0.6668  -0.6021
 -0.5940  -0.5757  -0.4904  -0.4613  -0.4307  -0.4182
 -- Virtual --
 -0.1799  -0.0709  -0.0195   0.0398   0.0716   0.1134   0.1334   0.1373
  0.1425   0.1650   0.1845   0.1936   0.2207   0.2328   0.2433   0.2497
  0.2597   0.2846   0.3065   0.3131   0.3194   0.3319   0.3380   0.3467
  0.3555   0.3654   0.3855   0.3987   0.4320   0.4479   0.4834   0.5064
  0.7371   0.7660   0.8139   0.8381   0.8705   0.8776   0.9497   0.9663
  0.9848   0.9949   1.0237   1.0535   1.0672   1.0813   1.1055   1.1138
  1.1246   1.1422   1.1528   1.1607   1.1642   1.1722   1.2073   1.2303
  1.2796   1.3450   1.4603   1.5000   1.5147   1.5470   1.5713   1.5937
  1.6145   1.6304   1.6377   1.6557   1.6942   1.7323   1.7449   1.8327
  1.8730   1.8814   1.9716   2.1088   2.1409   2.1900   2.2656   2.3715
  2.3928   2.4082   2.4845   2.5295   2.6096   2.6322   3.5216   3.5418
  3.5831   3.6168   3.6352   3.6521   3.6833   3.7269   3.7382   3.7791
  3.8218   3.8512   3.8902   3.9756   4.0250   4.0496   4.1710   4.2012
  4.2417   4.6069   4.6538   4.6703   4.6860   4.7034   4.7166   4.7955
  4.8090   4.8421   4.8964   4.9266   5.0048   5.0272   5.0451   5.0552
  5.0695   5.0741   5.0812   5.0840   5.0927   5.0997   5.1084   5.1255
  5.1366   5.1698   5.1888   5.2077   5.2421   5.2889   5.3047   5.3369
  5.3838   5.4890   5.5386   5.5891   5.6492   5.6848   5.7636   5.8448
  5.9527   5.9596   6.0581   6.1412   6.1982   6.3451   6.7261   6.7340
  6.7747   6.7812   6.7895   6.8055   6.8246   6.8390   6.8440   6.9708
  7.0424   7.0830   7.1049   7.1349   7.1580   7.1757   7.1876   7.2259
  7.3216   7.4484   7.4975   7.5765   7.7248   7.7708   7.8901   7.9038
 35.6664  35.9456  50.0044  50.0236  50.0589  50.1829
 --------------------------------------------------------------
 
 -----------------------------------------------------------------
                    Cartesian Multipole Moments
 -----------------------------------------------------------------
    Charge (ESU x 10^10)
                 0.0000
    Dipole Moment (Debye)
         X      -1.0584      Y      -2.0600      Z       0.2033
       Tot       2.3249
    Quadrupole Moments (Debye-Ang)
        XX     -34.1013     XY      -1.8618     YY     -35.2788
        XZ      -4.0477     YZ      -4.3190     ZZ     -31.6765
    Octopole Moments (Debye-Ang^2)
       XXX     -36.5425    XXY     -15.0158    XYY     -13.3771
       YYY     -47.9191    XXZ     -98.1168    XYZ      -6.2556
       YYZ     -95.8162    XZZ     -24.6095    YZZ     -21.2919
       ZZZ    -274.2903
    Hexadecapole Moments (Debye-Ang^3)
      XXXX    -149.6237   XXXY     -64.8584   XXYY     -89.6896
      XYYY     -68.1974   YYYY    -380.4171   XXXZ     -99.6520
      XXYZ     -18.9316   XYYZ     -35.1417   YYYZ     -56.7376
      XXZZ    -328.3495   XYZZ     -41.1607   YYZZ    -347.2280
      XZZZ    -131.0933   YZZZ     -48.8206   ZZZZ   -1703.0497
 -----------------------------------------------------------------
Archival summary:
1\1\centos77-c5\SP\ProcedureUnspecified\BasisUnspecified\42(3)\shihchen\MonJul1315:48:132020MonJul1315:48:132020\0\\#,ProcedureUnspecified,BasisUnspecified,\\0,3\N\O,1,1.32109\O,1,1.33624,2,125.079\O,1,1.35994,2,113.785,3,-179.905,0\N,2,1.6291,1,110.922,3,2.72003,0\O,5,1.15776,2,121.464,1,95.6949,0\\\@

 Total job time:  23.81s(wall), 132.73s(cpu) 
 Mon Jul 13 15:48:13 2020

        *************************************************************
        *                                                           *
        *  Thank you very much for using Q-Chem.  Have a nice day.  *
        *                                                           *
        *************************************************************


