                  Welcome to Q-Chem
     A Quantum Leap Into The Future Of Chemistry


 Q-Chem 5.3 (devel), Q-Chem, Inc., Pleasanton, CA (2020)

 Yihan Shao,  Zhengting Gan,  E. Epifanovsky,  A. T. B. Gilbert,  M. Wormit,  
 J. Kussmann,  A. W. Lange,  A. Behn,  Jia Deng,  Xintian Feng,  D. Ghosh,  
 M. Goldey,  P. R. Horn,  L. D. Jacobson,  I. Kaliman,  T. Kus,  A. Landau,  
 Jie Liu,  E. I. Proynov,  R. M. Richard,  R. P. Steele,  E. J. Sundstrom,  
 H. L. Woodcock III,  P. M. Zimmerman,  D. Zuev,  B. Alam,  B. Albrecht,  
 E. Alguire,  S. A. Baeppler,  D. Barton,  Z. Benda,  Y. A. Bernard,  
 E. J. Berquist,  K. B. Bravaya,  H. Burton,  K. Carter-Fenk,  D. Casanova,  
 Chun-Min Chang,  Yunqing Chen,  A. Chien,  K. D. Closser,  M. P. Coons,  
 S. Coriani,  S. Dasgupta,  A. L. Dempwolff,  M. Diedenhofen,  Hainam Do,  
 R. G. Edgar,  Po-Tung Fang,  S. Faraji,  S. Fatehi,  Qingguo Feng,  
 J. Fosso-Tande,  J. Gayvert,  Qinghui Ge,  A. Ghysels,  G. Gidofalvi,  
 J. Gomes,  J. Gonthier,  A. Gunina,  D. Hait,  M. W. D. Hanson-Heine,  
 P. H. P. Harbach,  A. W. Hauser,  M. F. Herbst,  J. E. Herr,  
 E. G. Hohenstein,  Z. C. Holden,  Kerwin Hui,  B. C. Huynh,  T.-C. Jagau,  
 Hyunjun Ji,  B. Kaduk,  K. Khistyaev,  Jaehoon Kim,  P. Klunzinger,  K. Koh,  
 D. Kosenkov,  L. Koulias,  T. Kowalczyk,  C. M. Krauter,  A. Kunitsa,  
 Ka Un Lao,  A. Laurent,  K. V. Lawler,  Joonho Lee,  D. Lefrancois,  
 S. Lehtola,  D. S. Levine,  Yi-Pei Li,  You-Sheng Lin,  Fenglai Liu,  
 Kuan-Yu Liu,  E. Livshits,  M. Loipersberger,  A. Luenser,  P. Manohar,  
 E. Mansoor,  S. F. Manzer,  Shan-Ping Mao,  Yuezhi Mao,  N. Mardirossian,  
 A. V. Marenich,  T. Markovich,  L. A. Martinez-Martinez,  S. A. Maurer,  
 N. J. Mayhall,  S. C. McKenzie,  J.-M. Mewes,  P. Morgante,  A. F. Morrison,  
 J. W. Mullinax,  K. Nanda,  T. S. Nguyen-Beck,  R. Olivares-Amaya,  
 K. J. Oosterbaan,  J. A. Parkhill,  S. K. Paul,  F. Pavosevic,  Zheng Pei,  
 T. M. Perrine,  F. Plasser,  P. Pokhilko,  S. Prager,  A. Prociuk,  
 E. Ramos,  B. Rana,  D. R. Rehn,  F. Rob,  M. Scheurer,  M. Schneider,  
 N. Sergueev,  S. M. Sharada,  S. Sharma,  D. W. Small,  T. Stauch,  
 C. J. Stein,  T. Stein,  Yu-Chuan Su,  S. P. Veccham,  Zhen Tao,  
 A. J. W. Thom,  A. Tkatchenko,  T. Tsuchimochi,  N. M. Tubman,  L. Vogt,  
 M. L. Vidal,  O. Vydrov,  M. A. Watson,  J. Wenzel,  M. de Wergifosse,  
 T. A. Wesolowski,  A. White,  J. Witte,  A. Yamada,  Jun Yang,  K. Yao,  
 S. Yeganeh,  S. R. Yost,  Zhi-Qiang You,  A. Zech,  Igor Ying Zhang,  
 Xing Zhang,  Yan Zhao,  Ying Zhu,  B. R. Brooks,  G. K. L. Chan,  
 C. J. Cramer,  M. S. Gordon,  W. J. Hehre,  A. Klamt,  M. W. Schmidt,  
 C. D. Sherrill,  D. G. Truhlar,  A. Aspuru-Guzik,  R. Baer,  A. T. Bell,  
 N. A. Besley,  Jeng-Da Chai,  A. E. DePrince, III,  R. A. DiStasio Jr.,  
 A. Dreuw,  B. D. Dunietz,  T. R. Furlani,  Chao-Ping Hsu,  Yousung Jung,  
 Jing Kong,  D. S. Lambrecht,  WanZhen Liang,  C. Ochsenfeld,  
 V. A. Rassolov,  L. V. Slipchenko,  J. E. Subotnik,  T. Van Voorhis,  
 J. M. Herbert,  A. I. Krylov,  P. M. W. Gill,  M. Head-Gordon

 Contributors to earlier versions of Q-Chem not listed above: 
 R. D. Adamson,  B. Austin,  J. Baker,  G. J. O. Beran,  K. Brandhorst,  
 S. T. Brown,  E. F. C. Byrd,  A. K. Chakraborty,  C.-L. Cheng,  
 Siu Hung Chien,  D. M. Chipman,  D. L. Crittenden,  H. Dachsel,  
 R. J. Doerksen,  A. D. Dutoi,  L. Fusti-Molnar,  W. A. Goddard III,  
 A. Golubeva-Zadorozhnaya,  S. R. Gwaltney,  G. Hawkins,  A. Heyden,  
 S. Hirata,  G. Kedziora,  F. J. Keil,  C. Kelley,  Jihan Kim,  R. A. King,  
 R. Z. Khaliullin,  P. P. Korambath,  W. Kurlancheek,  A. M. Lee,  M. S. Lee,  
 S. V. Levchenko,  Ching Yeh Lin,  D. Liotard,  R. C. Lochan,  I. Lotan,  
 P. E. Maslen,  N. Nair,  D. P. O'Neill,  D. Neuhauser,  E. Neuscamman,  
 C. M. Oana,  R. Olson,  B. Peters,  R. Peverati,  P. A. Pieniazek,  
 Y. M. Rhee,  J. Ritchie,  M. A. Rohrdanz,  E. Rosta,  N. J. Russ,  
 H. F. Schaefer III,  N. E. Schultz,  N. Shenvi,  A. C. Simmonett,  A. Sodt,  
 D. Stuck,  K. S. Thanthiriwatte,  V. Vanovschi,  Tao Wang,  A. Warshel,  
 C. F. Williams,  Q. Wu,  X. Xu,  W. Zhang

 Please cite Q-Chem as follows:
 Y. Shao et al., Mol. Phys. 113, 184-215 (2015)
 DOI: 10.1080/00268976.2014.952696

 Q-Chem 5.3.0 for Intel X86 EM64T Linux

 Parts of Q-Chem use Armadillo 9.800.1 (Horizon Scraper).
 http://arma.sourceforge.net/

 Q-Chem begins on Mon Jul 13 15:26:10 2020  

Host: centos77-c5
0

     Scratch files written to /tmp/29025.centos77-h1/qchem14905//
Processing $rem in /opt/qchem-5.3.0-intel2020u1//config/preferences:
Processing $rem in /home/shihchengli/.qchemrc:

Checking the input file for inconsistencies... 	...done.

--------------------------------------------------------------
User input:
--------------------------------------------------------------
$rem
   JOBTYPE  sp
   EXCHANGE   omegaB97X-D
   BASIS   6-311+G(2df,2pd)
   UNRESTRICTED   True
   max_scf_cycles   250
   geom_opt_max_cycles   1500
   basis2 6-31G*
   scf_algorithm rca_diis
   SYM_IGNORE  TRUE
   print_input   true
   geom_opt_dmax   80
   pop_mulliken false
   XC_GRID 000075000302
$end

$molecule
0 3
N       0.8256707840     1.2994903490     2.4869247350
O       0.2259550491     2.0913217175     1.8348262135
O       1.8696514767     1.3373752400     3.0334995225
N       -0.1547483901     -1.2827995607     3.1267743061
O       -0.7303532341     -1.5118580828     4.1333287446
O       -0.0911845555     0.1614594469     2.4849463684
$end
--------------------------------------------------------------
 ----------------------------------------------------------------
             Standard Nuclear Orientation (Angstroms)
    I     Atom           X                Y                Z
 ----------------------------------------------------------------
    1      N       0.8256707840     1.2994903490     2.4869247350
    2      O       0.2259550491     2.0913217175     1.8348262135
    3      O       1.8696514767     1.3373752400     3.0334995225
    4      N      -0.1547483901    -1.2827995607     3.1267743061
    5      O      -0.7303532341    -1.5118580828     4.1333287446
    6      O      -0.0911845555     0.1614594469     2.4849463684
 ----------------------------------------------------------------
 Nuclear Repulsion Energy =         225.15087036 hartrees
 There are       24 alpha and       22 beta electrons
 Requested basis set is 6-311+G(2df,2pd)
 There are 48 shells and 204 basis functions

 Total QAlloc Memory Limit   2000 MB
 Mega-Array Size       188 MB
 MEM_STATIC part       192 MB

                       Distance Matrix (Angstroms)
             N (  1)   O (  2)   O (  3)   N (  4)   O (  5)
   O (  2)  1.188229
   O (  3)  1.179014  2.169560
   N (  4)  2.835287  3.633010  3.312433
   O (  5)  3.610476  4.379560  4.010957  1.181922
   O (  6)  1.461418  2.060971  2.351290  1.581729  2.434275
 
 A cutoff of  1.0D-09 yielded    990 shell pairs
 There are     18359 function pairs (     23977 Cartesian)
 Smallest overlap matrix eigenvalue = 7.83E-04

 Scale SEOQF with 1.000000e-01/1.000000e-01/1.000000e-01

 Standard Electronic Orientation quadrupole field applied
 Nucleus-field energy     =    -0.0000000348 hartrees
 Requested basis set is 6-31G(d)
 There are 24 shells and 84 basis functions
 A cutoff of  1.0D-09 yielded    259 shell pairs
 There are      3403 function pairs (      3906 Cartesian)
 Smallest overlap matrix eigenvalue = 4.96E-03
 Guess from superposition of atomic densities
 Warning:  Energy on first SCF cycle will be non-variational
 SAD guess density has 46.000000 electrons
 Long-range K will be added via erf
 Coulomb attenuation parameter = 0.2 bohr**(-1)
 An unrestricted hybrid HF-DFT SCF calculation will be
 performed using Relaxed Constraint Minimization + Pulay DIIS
 Exchange:     0.2220 Hartree-Fock + 1.0000 wB97X-D + LR-HF
 Correlation:  1.0000 wB97X-D
 Using Euler-Maclaurin-Lebedev (75,302) quadrature formula
 Dispersion:   Grimme D
 SCF converges when DIIS error is below 1.0E-04
 using 6 threads for integral computing
 -------------------------------------------------------
 OpenMP Integral computing Module                
 Release: version 1.0, May 2013, Q-Chem Inc. Pittsburgh 
 -------------------------------------------------------
 using 6 threads for integral computing
 -------------------------------------------------------
 OpenMP Integral computing Module                
 Release: version 1.0, May 2013, Q-Chem Inc. Pittsburgh 
 -------------------------------------------------------
 ---------------------------------------
  Cycle       Energy         DIIS Error
 ---------------------------------------
    1    -411.0020074995      8.76E-02
    2    -409.6447967902      1.92E-02
    3    -409.7467489988      4.37E-03
    4    -409.8919936195      4.62E-03
    5    -409.8981173575      6.78E-04 Done RCA. Switching to DIIS
    6    -409.9063617808      5.97E-04
    7    -409.9068033806      1.34E-04
    8    -409.9068795426      5.95E-05 Convergence criterion met
 ---------------------------------------
 <S^2> = 2.0167
 SCF time:  CPU 13.99 s  wall 2.35 s
 SCF   energy in the small basis set = -409.90687954
 Total energy in the small basis set = -409.90687954
 ----------------------------------------------------
  Cycle       Energy    
 ----------------------------------------------------
    1     -41.7384049049     -4.17E+01
 Long-range K will be added via erf
 Coulomb attenuation parameter = 0.2 bohr**(-1)
 An unrestricted hybrid HF-DFT SCF calculation will be
 performed using Relaxed Constraint Minimization + Pulay DIIS
 Exchange:     0.2220 Hartree-Fock + 1.0000 wB97X-D + LR-HF
 Correlation:  1.0000 wB97X-D
 Using Euler-Maclaurin-Lebedev (75,302) quadrature formula
 Dispersion:   Grimme D
 SCF converges when DIIS error is below 1.0E-05
 Basis2 calculation detected. Using small basis as guess for larger.
 SCFMinFind is unable to tell whether the solution found is close.
 Resetting ReadMinima to 0 and attempting to follow guess.
 SCFMinFind following SCF Guess.
 using 6 threads for integral computing
 -------------------------------------------------------
 OpenMP Integral computing Module                
 Release: version 1.0, May 2013, Q-Chem Inc. Pittsburgh 
 -------------------------------------------------------
 using 6 threads for integral computing
 -------------------------------------------------------
 OpenMP Integral computing Module                
 Release: version 1.0, May 2013, Q-Chem Inc. Pittsburgh 
 -------------------------------------------------------
 ---------------------------------------
  Cycle       Energy         DIIS Error
 ---------------------------------------
    1    -409.9976959938      8.02E-03
    2    -410.0051096419      4.19E-03
    3    -410.0266396899      1.17E-03
    4    -410.0567607117      1.16E-03
    5    -410.0590971914      1.33E-04 Done RCA. Switching to DIIS
    6    -410.0625269318      1.32E-04
    7    -410.0626401025      5.27E-05
    8    -410.0626969363      1.86E-05
    9    -410.0627196264      1.15E-05
   10    -410.0627296299      6.45E-06 Convergence criterion met
 ---------------------------------------
 <S^2> = 2.0190
 SCF time:  CPU 61.57 s  wall 10.29 s
 SCF   energy in the final basis set = -410.06272963
 Total energy in the final basis set = -410.06272963
 
 --------------------------------------------------------------
 
                    Orbital Energies (a.u.)
 --------------------------------------------------------------
 
 Alpha MOs
 -- Occupied --
-19.3953 -19.3889 -19.3632 -19.3618 -14.7766 -14.6179  -1.4474  -1.3525
 -1.2737  -1.1882  -0.8907  -0.7709  -0.7251  -0.7197  -0.6852  -0.6451
 -0.6245  -0.6054  -0.5172  -0.4895  -0.4725  -0.4638  -0.4271  -0.3340
 -- Virtual --
 -0.0309  -0.0058   0.0816   0.1156   0.1266   0.1320   0.1371   0.1647
  0.1775   0.1868   0.2180   0.2359   0.2453   0.2577   0.2733   0.2869
  0.2937   0.3240   0.3325   0.3424   0.3481   0.3610   0.3801   0.3898
  0.3982   0.4275   0.4535   0.4705   0.5073   0.5320   0.7604   0.7776
  0.8093   0.8274   0.8653   0.8739   0.9313   0.9377   0.9890   0.9940
  1.0334   1.0382   1.0567   1.0661   1.0800   1.0840   1.1103   1.1217
  1.1346   1.1425   1.1572   1.1715   1.2529   1.2727   1.2882   1.3843
  1.4337   1.5076   1.5265   1.5436   1.5527   1.5691   1.5726   1.6138
  1.6473   1.6669   1.7222   1.7626   1.8187   1.8764   1.9087   1.9637
  1.9842   2.1026   2.1387   2.2252   2.2792   2.4082   2.4496   2.4830
  2.5148   2.5744   2.6700   2.7678   3.4742   3.5350   3.5940   3.6067
  3.6394   3.6531   3.6561   3.7151   3.7316   3.7744   3.7997   3.8533
  3.9512   3.9806   4.0322   4.0775   4.2326   4.4256   4.4338   4.4762
  4.5658   4.5832   4.6594   4.6842   4.6930   4.7112   4.7355   4.7648
  4.9136   4.9425   4.9991   5.0167   5.0240   5.0265   5.0307   5.0396
  5.0567   5.0635   5.0784   5.0934   5.1238   5.1261   5.1301   5.1888
  5.2050   5.2665   5.2996   5.3639   5.4140   5.4295   5.4655   5.4787
  5.5326   5.5410   5.6049   5.6525   5.8200   5.8488   5.9323   6.1652
  6.4891   6.5423   6.6004   6.6465   6.6945   6.7314   6.7475   6.7501
  6.7709   6.8057   6.8449   6.8842   6.9187   6.9378   7.1202   7.1228
  7.1552   7.1666   7.2122   7.2271   7.2692   7.3674   7.4188   7.5033
  7.6743   7.6766   7.7778   7.8498   8.0296   8.2818  35.8885  36.1237
 49.9582  50.1531  50.2259  50.2515
 
 Beta MOs
 -- Occupied --
-19.3838 -19.3710 -19.3635 -19.3582 -14.7760 -14.5999  -1.4428  -1.3139
 -1.2693  -1.1564  -0.8513  -0.7463  -0.7175  -0.6978  -0.6787  -0.5802
 -0.5739  -0.5475  -0.4803  -0.4745  -0.4610  -0.4496
 -- Virtual --
 -0.1431  -0.0272  -0.0148   0.0410   0.0876   0.1218   0.1339   0.1403
  0.1570   0.1677   0.1818   0.1915   0.2189   0.2383   0.2489   0.2602
  0.2755   0.2902   0.3020   0.3251   0.3339   0.3448   0.3501   0.3646
  0.3824   0.3922   0.4117   0.4365   0.4573   0.4816   0.5146   0.5392
  0.7671   0.7857   0.8208   0.8490   0.8739   0.8858   0.9383   0.9411
  1.0000   1.0099   1.0413   1.0479   1.0613   1.0738   1.0921   1.1091
  1.1167   1.1458   1.1473   1.1538   1.1632   1.1777   1.2649   1.2829
  1.2984   1.3948   1.4485   1.5173   1.5277   1.5597   1.5671   1.5787
  1.5841   1.6328   1.6659   1.6793   1.7294   1.7783   1.8249   1.8823
  1.9202   1.9748   2.0017   2.1184   2.1494   2.2433   2.2905   2.4179
  2.4599   2.4997   2.5184   2.5794   2.6799   2.7732   3.4952   3.5711
  3.6108   3.6268   3.6529   3.6550   3.6679   3.7243   3.7568   3.8185
  3.8477   3.8701   3.9806   3.9940   4.0387   4.0953   4.2424   4.4288
  4.4371   4.4786   4.5821   4.6116   4.6647   4.7142   4.7250   4.7545
  4.7560   4.8017   4.9521   4.9871   5.0120   5.0259   5.0351   5.0393
  5.0512   5.0719   5.0821   5.0834   5.0885   5.1080   5.1332   5.1375
  5.1684   5.2179   5.2237   5.2890   5.3185   5.3700   5.4320   5.4477
  5.4787   5.4942   5.5455   5.5616   5.6218   5.6721   5.8314   5.8602
  5.9470   6.1808   6.5046   6.5465   6.6432   6.6620   6.7284   6.7532
  6.7784   6.7960   6.8105   6.8169   6.8580   6.9093   6.9401   6.9418
  7.1322   7.1423   7.1656   7.2021   7.2256   7.2430   7.2864   7.3787
  7.4402   7.5139   7.7001   7.7056   7.7816   7.8535   8.0556   8.2858
 35.9103  36.1247  49.9701  50.1698  50.2294  50.2513
 --------------------------------------------------------------
 
 -----------------------------------------------------------------
                    Cartesian Multipole Moments
 -----------------------------------------------------------------
    Charge (ESU x 10^10)
                -0.0000
    Dipole Moment (Debye)
         X       0.2089      Y      -0.2883      Z       0.0567
       Tot       0.3605
    Quadrupole Moments (Debye-Ang)
        XX     -33.2271     XY      -0.5296     YY     -32.8363
        XZ      -0.3486     YZ       0.6841     ZZ     -32.0194
    Octopole Moments (Debye-Ang^2)
       XXX     -34.4462    XXY     -12.7189    XYY     -11.0793
       YYY     -38.1143    XXZ     -96.8152    XYZ      -3.2085
       YYZ     -91.5447    XZZ     -12.2770    YZZ      -3.9309
       ZZZ    -275.5471
    Hexadecapole Moments (Debye-Ang^3)
      XXXX    -182.8807   XXXY     -89.0617   XXYY     -99.3254
      XYYY     -86.8202   YYYY    -403.2907   XXXZ     -82.9477
      XXYZ     -12.9315   XYYZ     -25.1759   YYYZ     -27.2048
      XXZZ    -329.9620   XYZZ     -41.8675   YYZZ    -344.8912
      XZZZ     -74.7685   YZZZ      19.0347   ZZZZ   -1696.2346
 -----------------------------------------------------------------
Archival summary:
1\1\centos77-c5\SP\ProcedureUnspecified\BasisUnspecified\42(3)\shihchen\MonJul1315:26:252020MonJul1315:26:252020\0\\#,ProcedureUnspecified,BasisUnspecified,\\0,3\N\O,1,1.17901\O,1,1.18823,2,132.837\O,1,1.46142,2,125.533,3,-179.246,0\N,4,1.58173,1,137.366,2,2.25115,0\O,5,1.18192,4,122.827,1,95.6949,0\\\@

 Total job time:  14.90s(wall), 79.76s(cpu) 
 Mon Jul 13 15:26:25 2020

        *************************************************************
        *                                                           *
        *  Thank you very much for using Q-Chem.  Have a nice day.  *
        *                                                           *
        *************************************************************


