                  Welcome to Q-Chem
     A Quantum Leap Into The Future Of Chemistry


 Q-Chem 5.3 (devel), Q-Chem, Inc., Pleasanton, CA (2020)

 Yihan Shao,  Zhengting Gan,  E. Epifanovsky,  A. T. B. Gilbert,  M. Wormit,  
 J. Kussmann,  A. W. Lange,  A. Behn,  Jia Deng,  Xintian Feng,  D. Ghosh,  
 M. Goldey,  P. R. Horn,  L. D. Jacobson,  I. Kaliman,  T. Kus,  A. Landau,  
 Jie Liu,  E. I. Proynov,  R. M. Richard,  R. P. Steele,  E. J. Sundstrom,  
 H. L. Woodcock III,  P. M. Zimmerman,  D. Zuev,  B. Alam,  B. Albrecht,  
 E. Alguire,  S. A. Baeppler,  D. Barton,  Z. Benda,  Y. A. Bernard,  
 E. J. Berquist,  K. B. Bravaya,  H. Burton,  K. Carter-Fenk,  D. Casanova,  
 Chun-Min Chang,  Yunqing Chen,  A. Chien,  K. D. Closser,  M. P. Coons,  
 S. Coriani,  S. Dasgupta,  A. L. Dempwolff,  M. Diedenhofen,  Hainam Do,  
 R. G. Edgar,  Po-Tung Fang,  S. Faraji,  S. Fatehi,  Qingguo Feng,  
 J. Fosso-Tande,  J. Gayvert,  Qinghui Ge,  A. Ghysels,  G. Gidofalvi,  
 J. Gomes,  J. Gonthier,  A. Gunina,  D. Hait,  M. W. D. Hanson-Heine,  
 P. H. P. Harbach,  A. W. Hauser,  M. F. Herbst,  J. E. Herr,  
 E. G. Hohenstein,  Z. C. Holden,  Kerwin Hui,  B. C. Huynh,  T.-C. Jagau,  
 Hyunjun Ji,  B. Kaduk,  K. Khistyaev,  Jaehoon Kim,  P. Klunzinger,  K. Koh,  
 D. Kosenkov,  L. Koulias,  T. Kowalczyk,  C. M. Krauter,  A. Kunitsa,  
 Ka Un Lao,  A. Laurent,  K. V. Lawler,  Joonho Lee,  D. Lefrancois,  
 S. Lehtola,  D. S. Levine,  Yi-Pei Li,  You-Sheng Lin,  Fenglai Liu,  
 Kuan-Yu Liu,  E. Livshits,  M. Loipersberger,  A. Luenser,  P. Manohar,  
 E. Mansoor,  S. F. Manzer,  Shan-Ping Mao,  Yuezhi Mao,  N. Mardirossian,  
 A. V. Marenich,  T. Markovich,  L. A. Martinez-Martinez,  S. A. Maurer,  
 N. J. Mayhall,  S. C. McKenzie,  J.-M. Mewes,  P. Morgante,  A. F. Morrison,  
 J. W. Mullinax,  K. Nanda,  T. S. Nguyen-Beck,  R. Olivares-Amaya,  
 K. J. Oosterbaan,  J. A. Parkhill,  S. K. Paul,  F. Pavosevic,  Zheng Pei,  
 T. M. Perrine,  F. Plasser,  P. Pokhilko,  S. Prager,  A. Prociuk,  
 E. Ramos,  B. Rana,  D. R. Rehn,  F. Rob,  M. Scheurer,  M. Schneider,  
 N. Sergueev,  S. M. Sharada,  S. Sharma,  D. W. Small,  T. Stauch,  
 C. J. Stein,  T. Stein,  Yu-Chuan Su,  S. P. Veccham,  Zhen Tao,  
 A. J. W. Thom,  A. Tkatchenko,  T. Tsuchimochi,  N. M. Tubman,  L. Vogt,  
 M. L. Vidal,  O. Vydrov,  M. A. Watson,  J. Wenzel,  M. de Wergifosse,  
 T. A. Wesolowski,  A. White,  J. Witte,  A. Yamada,  Jun Yang,  K. Yao,  
 S. Yeganeh,  S. R. Yost,  Zhi-Qiang You,  A. Zech,  Igor Ying Zhang,  
 Xing Zhang,  Yan Zhao,  Ying Zhu,  B. R. Brooks,  G. K. L. Chan,  
 C. J. Cramer,  M. S. Gordon,  W. J. Hehre,  A. Klamt,  M. W. Schmidt,  
 C. D. Sherrill,  D. G. Truhlar,  A. Aspuru-Guzik,  R. Baer,  A. T. Bell,  
 N. A. Besley,  Jeng-Da Chai,  A. E. DePrince, III,  R. A. DiStasio Jr.,  
 A. Dreuw,  B. D. Dunietz,  T. R. Furlani,  Chao-Ping Hsu,  Yousung Jung,  
 Jing Kong,  D. S. Lambrecht,  WanZhen Liang,  C. Ochsenfeld,  
 V. A. Rassolov,  L. V. Slipchenko,  J. E. Subotnik,  T. Van Voorhis,  
 J. M. Herbert,  A. I. Krylov,  P. M. W. Gill,  M. Head-Gordon

 Contributors to earlier versions of Q-Chem not listed above: 
 R. D. Adamson,  B. Austin,  J. Baker,  G. J. O. Beran,  K. Brandhorst,  
 S. T. Brown,  E. F. C. Byrd,  A. K. Chakraborty,  C.-L. Cheng,  
 Siu Hung Chien,  D. M. Chipman,  D. L. Crittenden,  H. Dachsel,  
 R. J. Doerksen,  A. D. Dutoi,  L. Fusti-Molnar,  W. A. Goddard III,  
 A. Golubeva-Zadorozhnaya,  S. R. Gwaltney,  G. Hawkins,  A. Heyden,  
 S. Hirata,  G. Kedziora,  F. J. Keil,  C. Kelley,  Jihan Kim,  R. A. King,  
 R. Z. Khaliullin,  P. P. Korambath,  W. Kurlancheek,  A. M. Lee,  M. S. Lee,  
 S. V. Levchenko,  Ching Yeh Lin,  D. Liotard,  R. C. Lochan,  I. Lotan,  
 P. E. Maslen,  N. Nair,  D. P. O'Neill,  D. Neuhauser,  E. Neuscamman,  
 C. M. Oana,  R. Olson,  B. Peters,  R. Peverati,  P. A. Pieniazek,  
 Y. M. Rhee,  J. Ritchie,  M. A. Rohrdanz,  E. Rosta,  N. J. Russ,  
 H. F. Schaefer III,  N. E. Schultz,  N. Shenvi,  A. C. Simmonett,  A. Sodt,  
 D. Stuck,  K. S. Thanthiriwatte,  V. Vanovschi,  Tao Wang,  A. Warshel,  
 C. F. Williams,  Q. Wu,  X. Xu,  W. Zhang

 Please cite Q-Chem as follows:
 Y. Shao et al., Mol. Phys. 113, 184-215 (2015)
 DOI: 10.1080/00268976.2014.952696

 Q-Chem 5.3.0 for Intel X86 EM64T Linux

 Parts of Q-Chem use Armadillo 9.800.1 (Horizon Scraper).
 http://arma.sourceforge.net/

 Q-Chem begins on Mon Jul 13 15:36:57 2020  

Host: centos77-c5
0

     Scratch files written to /tmp/29025.centos77-h1/qchem76350//
Processing $rem in /opt/qchem-5.3.0-intel2020u1//config/preferences:
Processing $rem in /home/shihchengli/.qchemrc:

Checking the input file for inconsistencies... 	...done.

--------------------------------------------------------------
User input:
--------------------------------------------------------------
$rem
   JOBTYPE  sp
   EXCHANGE   omegaB97X-D
   BASIS   6-311+G(2df,2pd)
   UNRESTRICTED   True
   max_scf_cycles   250
   geom_opt_max_cycles   1500
   basis2 6-31G*
   scf_algorithm rca_diis
   SYM_IGNORE  TRUE
   print_input   true
   geom_opt_dmax   80
   pop_mulliken false
   XC_GRID 000075000302
$end

$molecule
0 3
N       0.6793182716     1.2274380927     2.4630317099
O       0.3618704181     2.2013721709     1.8354841595
O       1.5736910550     0.9413350590     3.1803998607
N       0.0351006880     -1.1447134138     3.1427112710
O       -0.4926897573     -1.3429444768     4.1705659118
O       -0.2122995453     0.2125016779     2.3081069772
$end
--------------------------------------------------------------
 ----------------------------------------------------------------
             Standard Nuclear Orientation (Angstroms)
    I     Atom           X                Y                Z
 ----------------------------------------------------------------
    1      N       0.6793182716     1.2274380927     2.4630317099
    2      O       0.3618704181     2.2013721709     1.8354841595
    3      O       1.5736910550     0.9413350590     3.1803998607
    4      N       0.0351006880    -1.1447134138     3.1427112710
    5      O      -0.4926897573    -1.3429444768     4.1705659118
    6      O      -0.2122995453     0.2125016779     2.3081069772
 ----------------------------------------------------------------
 Nuclear Repulsion Energy =         233.44233318 hartrees
 There are       24 alpha and       22 beta electrons
 Requested basis set is 6-311+G(2df,2pd)
 There are 48 shells and 204 basis functions

 Total QAlloc Memory Limit   2000 MB
 Mega-Array Size       188 MB
 MEM_STATIC part       192 MB

                       Distance Matrix (Angstroms)
             N (  1)   O (  2)   O (  3)   N (  4)   O (  5)
   O (  2)  1.201306
   O (  3)  1.181683  2.205675
   N (  4)  2.550310  3.607203  2.592350
   O (  5)  3.300931  4.329557  3.235474  1.172324
   O (  6)  1.359809  2.123358  2.117039  1.612391  2.442700
 
 A cutoff of  1.0D-09 yielded   1026 shell pairs
 There are     19131 function pairs (     25069 Cartesian)
 Smallest overlap matrix eigenvalue = 6.59E-04

 Scale SEOQF with 1.000000e-01/1.000000e-01/1.000000e-01

 Standard Electronic Orientation quadrupole field applied
 Nucleus-field energy     =    -0.0000000363 hartrees
 Requested basis set is 6-31G(d)
 There are 24 shells and 84 basis functions
 A cutoff of  1.0D-09 yielded    269 shell pairs
 There are      3538 function pairs (      4066 Cartesian)
 Smallest overlap matrix eigenvalue = 4.33E-03
 Guess from superposition of atomic densities
 Warning:  Energy on first SCF cycle will be non-variational
 SAD guess density has 46.000000 electrons
 Long-range K will be added via erf
 Coulomb attenuation parameter = 0.2 bohr**(-1)
 An unrestricted hybrid HF-DFT SCF calculation will be
 performed using Relaxed Constraint Minimization + Pulay DIIS
 Exchange:     0.2220 Hartree-Fock + 1.0000 wB97X-D + LR-HF
 Correlation:  1.0000 wB97X-D
 Using Euler-Maclaurin-Lebedev (75,302) quadrature formula
 Dispersion:   Grimme D
 SCF converges when DIIS error is below 1.0E-04
 using 6 threads for integral computing
 -------------------------------------------------------
 OpenMP Integral computing Module                
 Release: version 1.0, May 2013, Q-Chem Inc. Pittsburgh 
 -------------------------------------------------------
 using 6 threads for integral computing
 -------------------------------------------------------
 OpenMP Integral computing Module                
 Release: version 1.0, May 2013, Q-Chem Inc. Pittsburgh 
 -------------------------------------------------------
 ---------------------------------------
  Cycle       Energy         DIIS Error
 ---------------------------------------
    1    -411.1268140759      8.98E-02
    2    -409.6480375667      1.97E-02
    3    -409.7532111102      4.58E-03
    4    -409.9042882198      4.73E-03
    5    -409.9105698794      6.08E-04 Done RCA. Switching to DIIS
    6    -409.9187479644      4.88E-04
    7    -409.9190645707      1.56E-04
    8    -409.9191339088      6.49E-05 Convergence criterion met
 ---------------------------------------
 <S^2> = 2.0152
 SCF time:  CPU 14.37 s  wall 2.41 s
 SCF   energy in the small basis set = -409.91913391
 Total energy in the small basis set = -409.91913391
 ----------------------------------------------------
  Cycle       Energy    
 ----------------------------------------------------
    1     -41.7871404550     -4.18E+01
 Long-range K will be added via erf
 Coulomb attenuation parameter = 0.2 bohr**(-1)
 An unrestricted hybrid HF-DFT SCF calculation will be
 performed using Relaxed Constraint Minimization + Pulay DIIS
 Exchange:     0.2220 Hartree-Fock + 1.0000 wB97X-D + LR-HF
 Correlation:  1.0000 wB97X-D
 Using Euler-Maclaurin-Lebedev (75,302) quadrature formula
 Dispersion:   Grimme D
 SCF converges when DIIS error is below 1.0E-05
 Basis2 calculation detected. Using small basis as guess for larger.
 SCFMinFind is unable to tell whether the solution found is close.
 Resetting ReadMinima to 0 and attempting to follow guess.
 SCFMinFind following SCF Guess.
 using 6 threads for integral computing
 -------------------------------------------------------
 OpenMP Integral computing Module                
 Release: version 1.0, May 2013, Q-Chem Inc. Pittsburgh 
 -------------------------------------------------------
 using 6 threads for integral computing
 -------------------------------------------------------
 OpenMP Integral computing Module                
 Release: version 1.0, May 2013, Q-Chem Inc. Pittsburgh 
 -------------------------------------------------------
 ---------------------------------------
  Cycle       Energy         DIIS Error
 ---------------------------------------
    1    -410.0057511540      8.05E-03
    2    -410.0120811013      4.32E-03
    3    -410.0348674436      1.26E-03
    4    -410.0677576927      1.22E-03
    5    -410.0704249933      1.57E-04 Done RCA. Switching to DIIS
    6    -410.0743425926      1.70E-04
    7    -410.0745387723      5.50E-05
    8    -410.0746381887      2.31E-05
    9    -410.0746695303      1.20E-05
   10    -410.0746789666      5.48E-06 Convergence criterion met
 ---------------------------------------
 <S^2> = 2.0176
 SCF time:  CPU 64.42 s  wall 10.77 s
 SCF   energy in the final basis set = -410.07467897
 Total energy in the final basis set = -410.07467897
 
 --------------------------------------------------------------
 
                    Orbital Energies (a.u.)
 --------------------------------------------------------------
 
 Alpha MOs
 -- Occupied --
-19.4123 -19.4010 -19.3515 -19.3407 -14.7764 -14.6248  -1.4533  -1.3687
 -1.2609  -1.2214  -0.8942  -0.7733  -0.7252  -0.7217  -0.6880  -0.6571
 -0.6342  -0.6268  -0.5038  -0.4983  -0.4641  -0.4586  -0.4376  -0.3439
 -- Virtual --
 -0.0231   0.0112   0.0857   0.1169   0.1340   0.1373   0.1623   0.1710
  0.1822   0.1850   0.2260   0.2422   0.2483   0.2624   0.2708   0.2884
  0.3051   0.3245   0.3319   0.3466   0.3512   0.3637   0.3714   0.3896
  0.4000   0.4324   0.4473   0.4639   0.4891   0.5353   0.7530   0.7792
  0.8011   0.8251   0.8586   0.8717   0.9303   0.9382   0.9748   1.0079
  1.0226   1.0443   1.0539   1.0753   1.0829   1.0858   1.1213   1.1306
  1.1418   1.1566   1.1640   1.1775   1.2165   1.2549   1.2664   1.3340
  1.4495   1.4865   1.5113   1.5558   1.5617   1.5984   1.6049   1.6265
  1.6542   1.6762   1.6847   1.7772   1.8611   1.9106   1.9321   1.9445
  2.0223   2.1202   2.1955   2.2514   2.3431   2.3855   2.4703   2.4941
  2.5393   2.5783   2.7210   2.8326   3.4959   3.5310   3.5927   3.6150
  3.6494   3.6667   3.6922   3.7016   3.7217   3.7684   3.7948   3.9046
  3.9528   4.0064   4.0266   4.1314   4.1510   4.3923   4.4748   4.4859
  4.5004   4.5944   4.6474   4.6562   4.6858   4.7092   4.7431   4.7841
  4.8197   4.9158   4.9930   4.9988   5.0232   5.0266   5.0443   5.0491
  5.0758   5.0819   5.0900   5.1116   5.1175   5.1430   5.1631   5.1692
  5.2364   5.2685   5.3117   5.3969   5.4109   5.4288   5.4709   5.5167
  5.5655   5.6015   5.6424   5.6898   5.8523   5.9752   6.0896   6.2074
  6.3791   6.4884   6.6327   6.6765   6.7215   6.7367   6.7592   6.7684
  6.8068   6.8268   6.8700   6.9303   6.9688   7.0711   7.1208   7.1495
  7.1720   7.1844   7.2181   7.2595   7.2875   7.3450   7.4511   7.5330
  7.6877   7.7416   7.8212   7.8979   7.9775   8.3685  35.9015  36.1376
 50.0139  50.1596  50.2327  50.2754
 
 Beta MOs
 -- Occupied --
-19.3999 -19.3828 -19.3492 -19.3410 -14.7762 -14.6062  -1.4471  -1.3299
 -1.2580  -1.1921  -0.8505  -0.7399  -0.7224  -0.7055  -0.6743  -0.6027
 -0.5843  -0.5557  -0.4801  -0.4692  -0.4628  -0.4445
 -- Virtual --
 -0.1543  -0.0200  -0.0092   0.0608   0.0900   0.1210   0.1377   0.1411
  0.1679   0.1780   0.1884   0.1949   0.2271   0.2466   0.2518   0.2641
  0.2736   0.2908   0.3126   0.3259   0.3330   0.3485   0.3528   0.3657
  0.3738   0.3984   0.4081   0.4371   0.4516   0.4678   0.5072   0.5410
  0.7626   0.7898   0.8135   0.8442   0.8669   0.8837   0.9344   0.9466
  0.9860   1.0184   1.0280   1.0556   1.0666   1.0874   1.0947   1.1031
  1.1337   1.1395   1.1501   1.1681   1.1755   1.1873   1.2280   1.2636
  1.2803   1.3504   1.4638   1.5005   1.5165   1.5613   1.5660   1.6058
  1.6242   1.6459   1.6688   1.6842   1.7131   1.7806   1.8708   1.9187
  1.9374   1.9636   2.0375   2.1324   2.2110   2.2630   2.3570   2.3945
  2.4826   2.5066   2.5449   2.5829   2.7312   2.8364   3.5257   3.5667
  3.6063   3.6334   3.6556   3.6809   3.6987   3.7167   3.7361   3.8025
  3.8607   3.9228   3.9853   4.0208   4.0331   4.1423   4.1649   4.3955
  4.4800   4.4944   4.5022   4.6206   4.6540   4.6964   4.7214   4.7251
  4.7686   4.8145   4.8745   4.9655   5.0100   5.0167   5.0467   5.0500
  5.0581   5.0653   5.0887   5.0935   5.1132   5.1232   5.1301   5.1633
  5.1935   5.2015   5.2457   5.2915   5.3257   5.4107   5.4261   5.4390
  5.4902   5.5390   5.5851   5.6145   5.6634   5.7035   5.8563   5.9820
  6.1182   6.2244   6.3963   6.4906   6.6773   6.7109   6.7596   6.7726
  6.7946   6.8048   6.8112   6.8350   6.8728   6.9492   6.9834   7.0898
  7.1485   7.1535   7.1925   7.2070   7.2422   7.2689   7.2958   7.3704
  7.4764   7.5415   7.7173   7.7558   7.8347   7.9160   7.9870   8.3710
 35.9239  36.1380  50.0264  50.1766  50.2352  50.2753
 --------------------------------------------------------------
 
 -----------------------------------------------------------------
                    Cartesian Multipole Moments
 -----------------------------------------------------------------
    Charge (ESU x 10^10)
                -0.0000
    Dipole Moment (Debye)
         X      -0.3096      Y      -0.8571      Z       0.0634
       Tot       0.9136
    Quadrupole Moments (Debye-Ang)
        XX     -33.2587     XY      -1.0925     YY     -33.5215
        XZ      -2.1182     YZ      -1.0046     ZZ     -32.1730
    Octopole Moments (Debye-Ang^2)
       XXX     -34.3636    XXY     -13.1727    XYY     -11.6316
       YYY     -41.9715    XXZ     -96.5759    XYZ      -4.4992
       YYZ     -91.8321    XZZ     -18.8185    YZZ     -10.3461
       ZZZ    -276.3394
    Hexadecapole Moments (Debye-Ang^3)
      XXXX    -136.8814   XXXY     -62.2580   XXYY     -83.8739
      XYYY     -63.8898   YYYY    -367.1433   XXXZ     -91.0401
      XXYZ     -14.9070   XYYZ     -29.0027   YYYZ     -38.7855
      XXZZ    -323.0788   XYZZ     -36.7086   YYZZ    -336.1064
      XZZZ    -107.5579   YZZZ      -8.9991   ZZZZ   -1708.8944
 -----------------------------------------------------------------
Archival summary:
1\1\centos77-c5\SP\ProcedureUnspecified\BasisUnspecified\42(3)\shihchen\MonJul1315:37:122020MonJul1315:37:122020\0\\#,ProcedureUnspecified,BasisUnspecified,\\0,3\N\O,1,1.18168\O,1,1.20131,2,135.514\O,1,1.35981,2,112.627,3,-179.841,0\N,4,1.61239,1,117.949,2,2.69587,0\O,5,1.17232,4,121.809,1,95.6941,0\\\@

 Total job time:  15.54s(wall), 82.97s(cpu) 
 Mon Jul 13 15:37:12 2020

        *************************************************************
        *                                                           *
        *  Thank you very much for using Q-Chem.  Have a nice day.  *
        *                                                           *
        *************************************************************


