                  Welcome to Q-Chem
     A Quantum Leap Into The Future Of Chemistry


 Q-Chem 5.3 (devel), Q-Chem, Inc., Pleasanton, CA (2020)

 Yihan Shao,  Zhengting Gan,  E. Epifanovsky,  A. T. B. Gilbert,  M. Wormit,  
 J. Kussmann,  A. W. Lange,  A. Behn,  Jia Deng,  Xintian Feng,  D. Ghosh,  
 M. Goldey,  P. R. Horn,  L. D. Jacobson,  I. Kaliman,  T. Kus,  A. Landau,  
 Jie Liu,  E. I. Proynov,  R. M. Richard,  R. P. Steele,  E. J. Sundstrom,  
 H. L. Woodcock III,  P. M. Zimmerman,  D. Zuev,  B. Alam,  B. Albrecht,  
 E. Alguire,  S. A. Baeppler,  D. Barton,  Z. Benda,  Y. A. Bernard,  
 E. J. Berquist,  K. B. Bravaya,  H. Burton,  K. Carter-Fenk,  D. Casanova,  
 Chun-Min Chang,  Yunqing Chen,  A. Chien,  K. D. Closser,  M. P. Coons,  
 S. Coriani,  S. Dasgupta,  A. L. Dempwolff,  M. Diedenhofen,  Hainam Do,  
 R. G. Edgar,  Po-Tung Fang,  S. Faraji,  S. Fatehi,  Qingguo Feng,  
 J. Fosso-Tande,  J. Gayvert,  Qinghui Ge,  A. Ghysels,  G. Gidofalvi,  
 J. Gomes,  J. Gonthier,  A. Gunina,  D. Hait,  M. W. D. Hanson-Heine,  
 P. H. P. Harbach,  A. W. Hauser,  M. F. Herbst,  J. E. Herr,  
 E. G. Hohenstein,  Z. C. Holden,  Kerwin Hui,  B. C. Huynh,  T.-C. Jagau,  
 Hyunjun Ji,  B. Kaduk,  K. Khistyaev,  Jaehoon Kim,  P. Klunzinger,  K. Koh,  
 D. Kosenkov,  L. Koulias,  T. Kowalczyk,  C. M. Krauter,  A. Kunitsa,  
 Ka Un Lao,  A. Laurent,  K. V. Lawler,  Joonho Lee,  D. Lefrancois,  
 S. Lehtola,  D. S. Levine,  Yi-Pei Li,  You-Sheng Lin,  Fenglai Liu,  
 Kuan-Yu Liu,  E. Livshits,  M. Loipersberger,  A. Luenser,  P. Manohar,  
 E. Mansoor,  S. F. Manzer,  Shan-Ping Mao,  Yuezhi Mao,  N. Mardirossian,  
 A. V. Marenich,  T. Markovich,  L. A. Martinez-Martinez,  S. A. Maurer,  
 N. J. Mayhall,  S. C. McKenzie,  J.-M. Mewes,  P. Morgante,  A. F. Morrison,  
 J. W. Mullinax,  K. Nanda,  T. S. Nguyen-Beck,  R. Olivares-Amaya,  
 K. J. Oosterbaan,  J. A. Parkhill,  S. K. Paul,  F. Pavosevic,  Zheng Pei,  
 T. M. Perrine,  F. Plasser,  P. Pokhilko,  S. Prager,  A. Prociuk,  
 E. Ramos,  B. Rana,  D. R. Rehn,  F. Rob,  M. Scheurer,  M. Schneider,  
 N. Sergueev,  S. M. Sharada,  S. Sharma,  D. W. Small,  T. Stauch,  
 C. J. Stein,  T. Stein,  Yu-Chuan Su,  S. P. Veccham,  Zhen Tao,  
 A. J. W. Thom,  A. Tkatchenko,  T. Tsuchimochi,  N. M. Tubman,  L. Vogt,  
 M. L. Vidal,  O. Vydrov,  M. A. Watson,  J. Wenzel,  M. de Wergifosse,  
 T. A. Wesolowski,  A. White,  J. Witte,  A. Yamada,  Jun Yang,  K. Yao,  
 S. Yeganeh,  S. R. Yost,  Zhi-Qiang You,  A. Zech,  Igor Ying Zhang,  
 Xing Zhang,  Yan Zhao,  Ying Zhu,  B. R. Brooks,  G. K. L. Chan,  
 C. J. Cramer,  M. S. Gordon,  W. J. Hehre,  A. Klamt,  M. W. Schmidt,  
 C. D. Sherrill,  D. G. Truhlar,  A. Aspuru-Guzik,  R. Baer,  A. T. Bell,  
 N. A. Besley,  Jeng-Da Chai,  A. E. DePrince, III,  R. A. DiStasio Jr.,  
 A. Dreuw,  B. D. Dunietz,  T. R. Furlani,  Chao-Ping Hsu,  Yousung Jung,  
 Jing Kong,  D. S. Lambrecht,  WanZhen Liang,  C. Ochsenfeld,  
 V. A. Rassolov,  L. V. Slipchenko,  J. E. Subotnik,  T. Van Voorhis,  
 J. M. Herbert,  A. I. Krylov,  P. M. W. Gill,  M. Head-Gordon

 Contributors to earlier versions of Q-Chem not listed above: 
 R. D. Adamson,  B. Austin,  J. Baker,  G. J. O. Beran,  K. Brandhorst,  
 S. T. Brown,  E. F. C. Byrd,  A. K. Chakraborty,  C.-L. Cheng,  
 Siu Hung Chien,  D. M. Chipman,  D. L. Crittenden,  H. Dachsel,  
 R. J. Doerksen,  A. D. Dutoi,  L. Fusti-Molnar,  W. A. Goddard III,  
 A. Golubeva-Zadorozhnaya,  S. R. Gwaltney,  G. Hawkins,  A. Heyden,  
 S. Hirata,  G. Kedziora,  F. J. Keil,  C. Kelley,  Jihan Kim,  R. A. King,  
 R. Z. Khaliullin,  P. P. Korambath,  W. Kurlancheek,  A. M. Lee,  M. S. Lee,  
 S. V. Levchenko,  Ching Yeh Lin,  D. Liotard,  R. C. Lochan,  I. Lotan,  
 P. E. Maslen,  N. Nair,  D. P. O'Neill,  D. Neuhauser,  E. Neuscamman,  
 C. M. Oana,  R. Olson,  B. Peters,  R. Peverati,  P. A. Pieniazek,  
 Y. M. Rhee,  J. Ritchie,  M. A. Rohrdanz,  E. Rosta,  N. J. Russ,  
 H. F. Schaefer III,  N. E. Schultz,  N. Shenvi,  A. C. Simmonett,  A. Sodt,  
 D. Stuck,  K. S. Thanthiriwatte,  V. Vanovschi,  Tao Wang,  A. Warshel,  
 C. F. Williams,  Q. Wu,  X. Xu,  W. Zhang

 Please cite Q-Chem as follows:
 Y. Shao et al., Mol. Phys. 113, 184-215 (2015)
 DOI: 10.1080/00268976.2014.952696

 Q-Chem 5.3.0 for Intel X86 EM64T Linux

 Parts of Q-Chem use Armadillo 9.800.1 (Horizon Scraper).
 http://arma.sourceforge.net/

 Q-Chem begins on Mon Jul 13 15:33:00 2020  

Host: centos77-c5
0

     Scratch files written to /tmp/29025.centos77-h1/qchem6012//
Processing $rem in /opt/qchem-5.3.0-intel2020u1//config/preferences:
Processing $rem in /home/shihchengli/.qchemrc:

Checking the input file for inconsistencies... 	...done.

--------------------------------------------------------------
User input:
--------------------------------------------------------------
$rem
   JOBTYPE  sp
   EXCHANGE   omegaB97X-D
   BASIS   6-311+G(2df,2pd)
   UNRESTRICTED   True
   max_scf_cycles   250
   geom_opt_max_cycles   1500
   basis2 6-31G*
   scf_algorithm rca_diis
   SYM_IGNORE  TRUE
   print_input   true
   geom_opt_dmax   80
   pop_mulliken false
   XC_GRID 000075000302
$end

$molecule
0 3
N       0.6925818594     1.1792593356     2.4918018290
O       0.3462951572     2.1200855342     1.8419637217
O       1.6129397463     0.9766916597     3.2171309433
N       0.0162891347     -1.0960840359     3.1359346100
O       -0.4559938114     -1.3505280904     4.1686952203
O       -0.2671209561     0.2655647068     2.2447735658
$end
--------------------------------------------------------------
 ----------------------------------------------------------------
             Standard Nuclear Orientation (Angstroms)
    I     Atom           X                Y                Z
 ----------------------------------------------------------------
    1      N       0.6925818594     1.1792593356     2.4918018290
    2      O       0.3462951572     2.1200855342     1.8419637217
    3      O       1.6129397463     0.9766916597     3.2171309433
    4      N       0.0162891347    -1.0960840359     3.1359346100
    5      O      -0.4559938114    -1.3505280904     4.1686952203
    6      O      -0.2671209561     0.2655647068     2.2447735658
 ----------------------------------------------------------------
 Nuclear Repulsion Energy =         234.01960492 hartrees
 There are       24 alpha and       22 beta electrons
 Requested basis set is 6-311+G(2df,2pd)
 There are 48 shells and 204 basis functions

 Total QAlloc Memory Limit   2000 MB
 Mega-Array Size       188 MB
 MEM_STATIC part       192 MB

                       Distance Matrix (Angstroms)
             N (  1)   O (  2)   O (  3)   N (  4)   O (  5)
   O (  2)  1.194721
   O (  3)  1.189199  2.191534
   N (  4)  2.459566  3.482386  2.617687
   O (  5)  3.245154  4.254704  3.256058  1.163782
   O (  6)  1.347921  1.994438  2.232892  1.651840  2.519703
 
 A cutoff of  1.0D-09 yielded   1032 shell pairs
 There are     19263 function pairs (     25281 Cartesian)
 Smallest overlap matrix eigenvalue = 6.26E-04

 Scale SEOQF with 1.000000e-01/1.000000e-01/1.000000e-01

 Standard Electronic Orientation quadrupole field applied
 Nucleus-field energy     =    -0.0000000366 hartrees
 Requested basis set is 6-31G(d)
 There are 24 shells and 84 basis functions
 A cutoff of  1.0D-09 yielded    269 shell pairs
 There are      3538 function pairs (      4066 Cartesian)
 Smallest overlap matrix eigenvalue = 4.51E-03
 Guess from superposition of atomic densities
 Warning:  Energy on first SCF cycle will be non-variational
 SAD guess density has 46.000000 electrons
 Long-range K will be added via erf
 Coulomb attenuation parameter = 0.2 bohr**(-1)
 An unrestricted hybrid HF-DFT SCF calculation will be
 performed using Relaxed Constraint Minimization + Pulay DIIS
 Exchange:     0.2220 Hartree-Fock + 1.0000 wB97X-D + LR-HF
 Correlation:  1.0000 wB97X-D
 Using Euler-Maclaurin-Lebedev (75,302) quadrature formula
 Dispersion:   Grimme D
 SCF converges when DIIS error is below 1.0E-04
 using 6 threads for integral computing
 -------------------------------------------------------
 OpenMP Integral computing Module                
 Release: version 1.0, May 2013, Q-Chem Inc. Pittsburgh 
 -------------------------------------------------------
 using 6 threads for integral computing
 -------------------------------------------------------
 OpenMP Integral computing Module                
 Release: version 1.0, May 2013, Q-Chem Inc. Pittsburgh 
 -------------------------------------------------------
 ---------------------------------------
  Cycle       Energy         DIIS Error
 ---------------------------------------
    1    -411.1474251858      9.05E-02
    2    -409.6508803677      1.97E-02
    3    -409.7551169685      4.62E-03
    4    -409.9051407549      4.84E-03
    5    -409.9116903721      6.25E-04 Done RCA. Switching to DIIS
    6    -409.9201953706      5.12E-04
    7    -409.9205392846      1.26E-04
    8    -409.9206101481      6.87E-05 Convergence criterion met
 ---------------------------------------
 <S^2> = 2.0148
 SCF time:  CPU 14.64 s  wall 2.46 s
 SCF   energy in the small basis set = -409.92061015
 Total energy in the small basis set = -409.92061015
 ----------------------------------------------------
  Cycle       Energy    
 ----------------------------------------------------
    1     -41.7930703967     -4.18E+01
 Long-range K will be added via erf
 Coulomb attenuation parameter = 0.2 bohr**(-1)
 An unrestricted hybrid HF-DFT SCF calculation will be
 performed using Relaxed Constraint Minimization + Pulay DIIS
 Exchange:     0.2220 Hartree-Fock + 1.0000 wB97X-D + LR-HF
 Correlation:  1.0000 wB97X-D
 Using Euler-Maclaurin-Lebedev (75,302) quadrature formula
 Dispersion:   Grimme D
 SCF converges when DIIS error is below 1.0E-05
 Basis2 calculation detected. Using small basis as guess for larger.
 SCFMinFind is unable to tell whether the solution found is close.
 Resetting ReadMinima to 0 and attempting to follow guess.
 SCFMinFind following SCF Guess.
 using 6 threads for integral computing
 -------------------------------------------------------
 OpenMP Integral computing Module                
 Release: version 1.0, May 2013, Q-Chem Inc. Pittsburgh 
 -------------------------------------------------------
 using 6 threads for integral computing
 -------------------------------------------------------
 OpenMP Integral computing Module                
 Release: version 1.0, May 2013, Q-Chem Inc. Pittsburgh 
 -------------------------------------------------------
 ---------------------------------------
  Cycle       Energy         DIIS Error
 ---------------------------------------
    1    -410.0091336126      8.04E-03
    2    -410.0134097055      4.32E-03
    3    -410.0360626814      1.29E-03
    4    -410.0685402283      1.13E-03
    5    -410.0713736357      1.77E-04 Done RCA. Switching to DIIS
    6    -410.0754469260      2.45E-04
    7    -410.0757524266      5.54E-05
    8    -410.0758418045      2.15E-05
    9    -410.0758712270      1.35E-05
   10    -410.0758800445      6.95E-06 Convergence criterion met
 ---------------------------------------
 <S^2> = 2.0171
 SCF time:  CPU 65.90 s  wall 11.02 s
 SCF   energy in the final basis set = -410.07588004
 Total energy in the final basis set = -410.07588004
 
 --------------------------------------------------------------
 
                    Orbital Energies (a.u.)
 --------------------------------------------------------------
 
 Alpha MOs
 -- Occupied --
-19.4173 -19.3975 -19.3488 -19.3462 -14.7772 -14.6159  -1.4590  -1.3689
 -1.2669  -1.2203  -0.8778  -0.7773  -0.7283  -0.7226  -0.6917  -0.6541
 -0.6325  -0.6307  -0.5082  -0.5021  -0.4645  -0.4621  -0.4285  -0.3377
 -- Virtual --
 -0.0248   0.0082   0.0822   0.1166   0.1344   0.1374   0.1562   0.1742
  0.1854   0.1865   0.2278   0.2420   0.2513   0.2648   0.2694   0.2912
  0.3060   0.3229   0.3332   0.3427   0.3517   0.3602   0.3734   0.3913
  0.4005   0.4329   0.4458   0.4681   0.4943   0.5281   0.7381   0.7601
  0.8029   0.8295   0.8589   0.8750   0.9346   0.9554   0.9762   1.0129
  1.0279   1.0477   1.0555   1.0696   1.0786   1.0874   1.1177   1.1237
  1.1415   1.1547   1.1678   1.1771   1.2151   1.2353   1.2474   1.3183
  1.4486   1.5031   1.5167   1.5436   1.5645   1.5846   1.6001   1.6125
  1.6444   1.6857   1.7011   1.7908   1.8020   1.9196   1.9394   2.0137
  2.0348   2.1336   2.2010   2.2396   2.3762   2.3888   2.4622   2.5076
  2.5312   2.5811   2.7028   2.8063   3.5122   3.5315   3.5846   3.6145
  3.6491   3.6532   3.6849   3.7115   3.7345   3.7744   3.8021   3.8985
  3.9546   4.0077   4.0415   4.0989   4.1618   4.3895   4.4321   4.4798
  4.5059   4.5908   4.6321   4.6409   4.6824   4.6992   4.7382   4.7759
  4.8372   4.8898   4.9911   5.0041   5.0226   5.0258   5.0428   5.0468
  5.0696   5.0818   5.0978   5.1183   5.1221   5.1427   5.1688   5.2047
  5.2294   5.2711   5.3209   5.3804   5.4003   5.4323   5.4686   5.5147
  5.5667   5.5774   5.6410   5.6803   5.8682   5.9920   6.0046   6.0926
  6.4871   6.5344   6.6743   6.6944   6.7292   6.7337   6.7649   6.7698
  6.7975   6.8189   6.8751   6.9222   6.9752   7.0200   7.1140   7.1559
  7.1615   7.1718   7.2031   7.2731   7.3328   7.3531   7.4753   7.5785
  7.7007   7.7185   7.8628   7.8919   7.9519   8.3009  35.9304  36.1556
 50.0194  50.1771  50.2474  50.2621
 
 Beta MOs
 -- Occupied --
-19.4038 -19.3805 -19.3492 -19.3427 -14.7771 -14.5976  -1.4517  -1.3322
 -1.2623  -1.1913  -0.8330  -0.7456  -0.7254  -0.7049  -0.6756  -0.6067
 -0.5840  -0.5580  -0.4861  -0.4743  -0.4603  -0.4445
 -- Virtual --
 -0.1426  -0.0214  -0.0027   0.0599   0.0870   0.1207   0.1376   0.1421
  0.1638   0.1791   0.1905   0.1934   0.2290   0.2461   0.2543   0.2665
  0.2723   0.2935   0.3127   0.3249   0.3346   0.3442   0.3535   0.3622
  0.3751   0.3977   0.4100   0.4366   0.4484   0.4734   0.5138   0.5351
  0.7487   0.7712   0.8153   0.8419   0.8747   0.8854   0.9383   0.9632
  0.9880   1.0204   1.0356   1.0603   1.0665   1.0781   1.0981   1.1012
  1.1239   1.1351   1.1498   1.1706   1.1734   1.1878   1.2295   1.2455
  1.2593   1.3359   1.4658   1.5123   1.5258   1.5513   1.5698   1.5967
  1.6157   1.6273   1.6602   1.6992   1.7225   1.7951   1.8102   1.9310
  1.9440   2.0314   2.0472   2.1491   2.2108   2.2536   2.3906   2.3972
  2.4772   2.5213   2.5348   2.5894   2.7111   2.8108   3.5448   3.5680
  3.6030   3.6288   3.6535   3.6644   3.6977   3.7214   3.7494   3.8047
  3.8699   3.9177   3.9826   4.0115   4.0597   4.1170   4.1714   4.3944
  4.4353   4.4897   4.5083   4.6101   4.6397   4.6781   4.7016   4.7283
  4.7694   4.8184   4.8784   4.9400   5.0064   5.0183   5.0449   5.0482
  5.0576   5.0639   5.0851   5.0930   5.1177   5.1269   5.1455   5.1624
  5.1885   5.2312   5.2486   5.2961   5.3368   5.4015   5.4043   5.4480
  5.4905   5.5292   5.5845   5.5961   5.6605   5.6965   5.8718   6.0039
  6.0126   6.1330   6.5028   6.5378   6.7169   6.7297   6.7680   6.7699
  6.7928   6.8022   6.8080   6.8331   6.8776   6.9245   7.0053   7.0351
  7.1355   7.1639   7.1742   7.2057   7.2266   7.2793   7.3516   7.3715
  7.5016   7.5926   7.7288   7.7441   7.8778   7.8995   7.9633   8.3051
 35.9524  36.1558  50.0327  50.1928  50.2507  50.2625
 --------------------------------------------------------------
 
 -----------------------------------------------------------------
                    Cartesian Multipole Moments
 -----------------------------------------------------------------
    Charge (ESU x 10^10)
                -0.0000
    Dipole Moment (Debye)
         X      -0.2914      Y      -0.8148      Z       0.0540
       Tot       0.8670
    Quadrupole Moments (Debye-Ang)
        XX     -32.9954     XY      -1.0692     YY     -33.7539
        XZ      -2.0299     YZ      -0.7574     ZZ     -32.3322
    Octopole Moments (Debye-Ang^2)
       XXX     -34.1132    XXY     -13.0206    XYY     -11.5507
       YYY     -41.5886    XXZ     -95.8647    XYZ      -4.3679
       YYZ     -92.5103    XZZ     -18.5678    YZZ      -9.2770
       ZZZ    -277.6269
    Hexadecapole Moments (Debye-Ang^3)
      XXXX    -139.4534   XXXY     -61.1462   XXYY     -81.7629
      XYYY     -63.7107   YYYY    -352.8378   XXXZ     -93.1704
      XXYZ     -15.2654   XYYZ     -29.5154   YYYZ     -40.3673
      XXZZ    -321.9681   XYZZ     -36.0543   YYZZ    -335.9157
      XZZZ    -109.9377   YZZZ      -7.4728   ZZZZ   -1718.4366
 -----------------------------------------------------------------
Archival summary:
1\1\centos77-c5\SP\ProcedureUnspecified\BasisUnspecified\42(3)\shihchen\MonJul1315:33:162020MonJul1315:33:162020\0\\#,ProcedureUnspecified,BasisUnspecified,\\0,3\N\O,1,1.1892\O,1,1.19472,2,133.647\O,1,1.34792,2,123.185,3,-179.257,0\N,4,1.65184,1,109.739,2,2.26337,0\O,5,1.16378,4,126.111,1,95.6949,0\\\@

 Total job time:  15.85s(wall), 84.63s(cpu) 
 Mon Jul 13 15:33:16 2020

        *************************************************************
        *                                                           *
        *  Thank you very much for using Q-Chem.  Have a nice day.  *
        *                                                           *
        *************************************************************


