                  Welcome to Q-Chem
     A Quantum Leap Into The Future Of Chemistry


 Q-Chem 5.3 (devel), Q-Chem, Inc., Pleasanton, CA (2020)

 Yihan Shao,  Zhengting Gan,  E. Epifanovsky,  A. T. B. Gilbert,  M. Wormit,  
 J. Kussmann,  A. W. Lange,  A. Behn,  Jia Deng,  Xintian Feng,  D. Ghosh,  
 M. Goldey,  P. R. Horn,  L. D. Jacobson,  I. Kaliman,  T. Kus,  A. Landau,  
 Jie Liu,  E. I. Proynov,  R. M. Richard,  R. P. Steele,  E. J. Sundstrom,  
 H. L. Woodcock III,  P. M. Zimmerman,  D. Zuev,  B. Alam,  B. Albrecht,  
 E. Alguire,  S. A. Baeppler,  D. Barton,  Z. Benda,  Y. A. Bernard,  
 E. J. Berquist,  K. B. Bravaya,  H. Burton,  K. Carter-Fenk,  D. Casanova,  
 Chun-Min Chang,  Yunqing Chen,  A. Chien,  K. D. Closser,  M. P. Coons,  
 S. Coriani,  S. Dasgupta,  A. L. Dempwolff,  M. Diedenhofen,  Hainam Do,  
 R. G. Edgar,  Po-Tung Fang,  S. Faraji,  S. Fatehi,  Qingguo Feng,  
 J. Fosso-Tande,  J. Gayvert,  Qinghui Ge,  A. Ghysels,  G. Gidofalvi,  
 J. Gomes,  J. Gonthier,  A. Gunina,  D. Hait,  M. W. D. Hanson-Heine,  
 P. H. P. Harbach,  A. W. Hauser,  M. F. Herbst,  J. E. Herr,  
 E. G. Hohenstein,  Z. C. Holden,  Kerwin Hui,  B. C. Huynh,  T.-C. Jagau,  
 Hyunjun Ji,  B. Kaduk,  K. Khistyaev,  Jaehoon Kim,  P. Klunzinger,  K. Koh,  
 D. Kosenkov,  L. Koulias,  T. Kowalczyk,  C. M. Krauter,  A. Kunitsa,  
 Ka Un Lao,  A. Laurent,  K. V. Lawler,  Joonho Lee,  D. Lefrancois,  
 S. Lehtola,  D. S. Levine,  Yi-Pei Li,  You-Sheng Lin,  Fenglai Liu,  
 Kuan-Yu Liu,  E. Livshits,  M. Loipersberger,  A. Luenser,  P. Manohar,  
 E. Mansoor,  S. F. Manzer,  Shan-Ping Mao,  Yuezhi Mao,  N. Mardirossian,  
 A. V. Marenich,  T. Markovich,  L. A. Martinez-Martinez,  S. A. Maurer,  
 N. J. Mayhall,  S. C. McKenzie,  J.-M. Mewes,  P. Morgante,  A. F. Morrison,  
 J. W. Mullinax,  K. Nanda,  T. S. Nguyen-Beck,  R. Olivares-Amaya,  
 K. J. Oosterbaan,  J. A. Parkhill,  S. K. Paul,  F. Pavosevic,  Zheng Pei,  
 T. M. Perrine,  F. Plasser,  P. Pokhilko,  S. Prager,  A. Prociuk,  
 E. Ramos,  B. Rana,  D. R. Rehn,  F. Rob,  M. Scheurer,  M. Schneider,  
 N. Sergueev,  S. M. Sharada,  S. Sharma,  D. W. Small,  T. Stauch,  
 C. J. Stein,  T. Stein,  Yu-Chuan Su,  S. P. Veccham,  Zhen Tao,  
 A. J. W. Thom,  A. Tkatchenko,  T. Tsuchimochi,  N. M. Tubman,  L. Vogt,  
 M. L. Vidal,  O. Vydrov,  M. A. Watson,  J. Wenzel,  M. de Wergifosse,  
 T. A. Wesolowski,  A. White,  J. Witte,  A. Yamada,  Jun Yang,  K. Yao,  
 S. Yeganeh,  S. R. Yost,  Zhi-Qiang You,  A. Zech,  Igor Ying Zhang,  
 Xing Zhang,  Yan Zhao,  Ying Zhu,  B. R. Brooks,  G. K. L. Chan,  
 C. J. Cramer,  M. S. Gordon,  W. J. Hehre,  A. Klamt,  M. W. Schmidt,  
 C. D. Sherrill,  D. G. Truhlar,  A. Aspuru-Guzik,  R. Baer,  A. T. Bell,  
 N. A. Besley,  Jeng-Da Chai,  A. E. DePrince, III,  R. A. DiStasio Jr.,  
 A. Dreuw,  B. D. Dunietz,  T. R. Furlani,  Chao-Ping Hsu,  Yousung Jung,  
 Jing Kong,  D. S. Lambrecht,  WanZhen Liang,  C. Ochsenfeld,  
 V. A. Rassolov,  L. V. Slipchenko,  J. E. Subotnik,  T. Van Voorhis,  
 J. M. Herbert,  A. I. Krylov,  P. M. W. Gill,  M. Head-Gordon

 Contributors to earlier versions of Q-Chem not listed above: 
 R. D. Adamson,  B. Austin,  J. Baker,  G. J. O. Beran,  K. Brandhorst,  
 S. T. Brown,  E. F. C. Byrd,  A. K. Chakraborty,  C.-L. Cheng,  
 Siu Hung Chien,  D. M. Chipman,  D. L. Crittenden,  H. Dachsel,  
 R. J. Doerksen,  A. D. Dutoi,  L. Fusti-Molnar,  W. A. Goddard III,  
 A. Golubeva-Zadorozhnaya,  S. R. Gwaltney,  G. Hawkins,  A. Heyden,  
 S. Hirata,  G. Kedziora,  F. J. Keil,  C. Kelley,  Jihan Kim,  R. A. King,  
 R. Z. Khaliullin,  P. P. Korambath,  W. Kurlancheek,  A. M. Lee,  M. S. Lee,  
 S. V. Levchenko,  Ching Yeh Lin,  D. Liotard,  R. C. Lochan,  I. Lotan,  
 P. E. Maslen,  N. Nair,  D. P. O'Neill,  D. Neuhauser,  E. Neuscamman,  
 C. M. Oana,  R. Olson,  B. Peters,  R. Peverati,  P. A. Pieniazek,  
 Y. M. Rhee,  J. Ritchie,  M. A. Rohrdanz,  E. Rosta,  N. J. Russ,  
 H. F. Schaefer III,  N. E. Schultz,  N. Shenvi,  A. C. Simmonett,  A. Sodt,  
 D. Stuck,  K. S. Thanthiriwatte,  V. Vanovschi,  Tao Wang,  A. Warshel,  
 C. F. Williams,  Q. Wu,  X. Xu,  W. Zhang

 Please cite Q-Chem as follows:
 Y. Shao et al., Mol. Phys. 113, 184-215 (2015)
 DOI: 10.1080/00268976.2014.952696

 Q-Chem 5.3.0 for Intel X86 EM64T Linux

 Parts of Q-Chem use Armadillo 9.800.1 (Horizon Scraper).
 http://arma.sourceforge.net/

 Q-Chem begins on Mon Jul 13 15:26:40 2020  

Host: centos77-c5
0

     Scratch files written to /tmp/29025.centos77-h1/qchem24073//
Processing $rem in /opt/qchem-5.3.0-intel2020u1//config/preferences:
Processing $rem in /home/shihchengli/.qchemrc:

Checking the input file for inconsistencies... 	...done.

--------------------------------------------------------------
User input:
--------------------------------------------------------------
$rem
   JOBTYPE  sp
   EXCHANGE   omegaB97X-D
   BASIS   6-311+G(2df,2pd)
   UNRESTRICTED   True
   max_scf_cycles   250
   geom_opt_max_cycles   1500
   basis2 6-31G*
   scf_algorithm rca_diis
   SYM_IGNORE  TRUE
   print_input   true
   geom_opt_dmax   80
   pop_mulliken false
   XC_GRID 000075000302
$end

$molecule
0 3
N       0.8617642682     1.3165969676     2.4914283517
O       0.1820020024     2.0493689541     1.8499948832
O       1.9271942770     1.4299471629     2.9804447933
N       -0.1999637723     -1.3020285505     3.1188947822
O       -0.7991122620     -1.5418710395     4.1136755598
O       -0.0268933832     0.1429756152     2.5458615197
$end
--------------------------------------------------------------
 ----------------------------------------------------------------
             Standard Nuclear Orientation (Angstroms)
    I     Atom           X                Y                Z
 ----------------------------------------------------------------
    1      N       0.8617642682     1.3165969676     2.4914283517
    2      O       0.1820020024     2.0493689541     1.8499948832
    3      O       1.9271942770     1.4299471629     2.9804447933
    4      N      -0.1999637723    -1.3020285505     3.1188947822
    5      O      -0.7991122620    -1.5418710395     4.1136755598
    6      O      -0.0268933832     0.1429756152     2.5458615197
 ----------------------------------------------------------------
 Nuclear Repulsion Energy =         224.19638183 hartrees
 There are       24 alpha and       22 beta electrons
 Requested basis set is 6-311+G(2df,2pd)
 There are 48 shells and 204 basis functions

 Total QAlloc Memory Limit   2000 MB
 Mega-Array Size       188 MB
 MEM_STATIC part       192 MB

                       Distance Matrix (Angstroms)
             N (  1)   O (  2)   O (  3)   N (  4)   O (  5)
   O (  2)  1.187631
   O (  3)  1.177763  2.169630
   N (  4)  2.894509  3.603869  3.465207
   O (  5)  3.682531  4.357045  4.189112  1.185788
   O (  6)  1.473113  2.040148  2.379835  1.564084  2.427565
 
 A cutoff of  1.0D-09 yielded    985 shell pairs
 There are     18265 function pairs (     23855 Cartesian)
 Smallest overlap matrix eigenvalue = 7.87E-04

 Scale SEOQF with 1.000000e-01/1.000000e-01/1.000000e-01

 Standard Electronic Orientation quadrupole field applied
 Nucleus-field energy     =    -0.0000000345 hartrees
 Requested basis set is 6-31G(d)
 There are 24 shells and 84 basis functions
 A cutoff of  1.0D-09 yielded    259 shell pairs
 There are      3403 function pairs (      3906 Cartesian)
 Smallest overlap matrix eigenvalue = 4.98E-03
 Guess from superposition of atomic densities
 Warning:  Energy on first SCF cycle will be non-variational
 SAD guess density has 46.000000 electrons
 Long-range K will be added via erf
 Coulomb attenuation parameter = 0.2 bohr**(-1)
 An unrestricted hybrid HF-DFT SCF calculation will be
 performed using Relaxed Constraint Minimization + Pulay DIIS
 Exchange:     0.2220 Hartree-Fock + 1.0000 wB97X-D + LR-HF
 Correlation:  1.0000 wB97X-D
 Using Euler-Maclaurin-Lebedev (75,302) quadrature formula
 Dispersion:   Grimme D
 SCF converges when DIIS error is below 1.0E-04
 using 6 threads for integral computing
 -------------------------------------------------------
 OpenMP Integral computing Module                
 Release: version 1.0, May 2013, Q-Chem Inc. Pittsburgh 
 -------------------------------------------------------
 using 6 threads for integral computing
 -------------------------------------------------------
 OpenMP Integral computing Module                
 Release: version 1.0, May 2013, Q-Chem Inc. Pittsburgh 
 -------------------------------------------------------
 ---------------------------------------
  Cycle       Energy         DIIS Error
 ---------------------------------------
    1    -411.0003781819      8.75E-02
    2    -409.6357785393      1.91E-02
    3    -409.7373576824      4.35E-03
    4    -409.8819723531      4.62E-03
    5    -409.8880992466      6.92E-04 Done RCA. Switching to DIIS
    6    -409.8963808089      6.15E-04
    7    -409.8968390539      1.50E-04
    8    -409.8969160727      5.85E-05 Convergence criterion met
 ---------------------------------------
 <S^2> = 2.0175
 SCF time:  CPU 13.83 s  wall 2.32 s
 SCF   energy in the small basis set = -409.89691607
 Total energy in the small basis set = -409.89691607
 ----------------------------------------------------
  Cycle       Energy    
 ----------------------------------------------------
    1     -41.7369314324     -4.17E+01
 Long-range K will be added via erf
 Coulomb attenuation parameter = 0.2 bohr**(-1)
 An unrestricted hybrid HF-DFT SCF calculation will be
 performed using Relaxed Constraint Minimization + Pulay DIIS
 Exchange:     0.2220 Hartree-Fock + 1.0000 wB97X-D + LR-HF
 Correlation:  1.0000 wB97X-D
 Using Euler-Maclaurin-Lebedev (75,302) quadrature formula
 Dispersion:   Grimme D
 SCF converges when DIIS error is below 1.0E-05
 Basis2 calculation detected. Using small basis as guess for larger.
 SCFMinFind is unable to tell whether the solution found is close.
 Resetting ReadMinima to 0 and attempting to follow guess.
 SCFMinFind following SCF Guess.
 using 6 threads for integral computing
 -------------------------------------------------------
 OpenMP Integral computing Module                
 Release: version 1.0, May 2013, Q-Chem Inc. Pittsburgh 
 -------------------------------------------------------
 using 6 threads for integral computing
 -------------------------------------------------------
 OpenMP Integral computing Module                
 Release: version 1.0, May 2013, Q-Chem Inc. Pittsburgh 
 -------------------------------------------------------
 ---------------------------------------
  Cycle       Energy         DIIS Error
 ---------------------------------------
    1    -409.9881707824      8.02E-03
    2    -409.9957258494      4.17E-03
    3    -410.0171919097      1.14E-03
    4    -410.0470321324      1.17E-03
    5    -410.0493139997      1.36E-04 Done RCA. Switching to DIIS
    6    -410.0526415870      1.36E-04
    7    -410.0527583002      5.35E-05
    8    -410.0528172334      1.94E-05
    9    -410.0528467566      1.23E-05
   10    -410.0528611693      7.67E-06 Convergence criterion met
 ---------------------------------------
 <S^2> = 2.0198
 SCF time:  CPU 60.76 s  wall 10.16 s
 SCF   energy in the final basis set = -410.05286117
 Total energy in the final basis set = -410.05286117
 
 --------------------------------------------------------------
 
                    Orbital Energies (a.u.)
 --------------------------------------------------------------
 
 Alpha MOs
 -- Occupied --
-19.3887 -19.3849 -19.3672 -19.3652 -14.7762 -14.6160  -1.4486  -1.3468
 -1.2776  -1.1820  -0.8934  -0.7696  -0.7255  -0.7202  -0.6868  -0.6410
 -0.6210  -0.5958  -0.5217  -0.4880  -0.4732  -0.4631  -0.4238  -0.3299
 -- Virtual --
 -0.0332  -0.0149   0.0824   0.1167   0.1307   0.1327   0.1374   0.1634
  0.1781   0.1872   0.2146   0.2340   0.2470   0.2580   0.2762   0.2857
  0.2919   0.3244   0.3306   0.3413   0.3461   0.3610   0.3835   0.3857
  0.4009   0.4262   0.4574   0.4699   0.5180   0.5355   0.7691   0.7771
  0.8170   0.8319   0.8550   0.8646   0.9284   0.9414   0.9845   1.0031
  1.0345   1.0442   1.0525   1.0688   1.0802   1.0826   1.1054   1.1198
  1.1328   1.1446   1.1649   1.1789   1.2552   1.2910   1.3019   1.3905
  1.4533   1.4985   1.5250   1.5493   1.5559   1.5640   1.5782   1.6141
  1.6417   1.6617   1.7222   1.7513   1.8217   1.8579   1.9366   1.9560
  2.0031   2.0946   2.1293   2.2167   2.2815   2.4181   2.4499   2.4828
  2.5117   2.5806   2.6679   2.7594   3.4683   3.5331   3.5838   3.6040
  3.6371   3.6531   3.6616   3.7145   3.7322   3.7754   3.8059   3.8565
  3.9433   3.9893   4.0462   4.0881   4.2656   4.4268   4.4320   4.4710
  4.5696   4.6239   4.6762   4.6888   4.6925   4.7171   4.7281   4.7731
  4.9339   4.9525   5.0003   5.0208   5.0216   5.0264   5.0294   5.0425
  5.0537   5.0598   5.0754   5.0992   5.1189   5.1255   5.1302   5.1954
  5.2091   5.2501   5.2888   5.3618   5.3995   5.4315   5.4614   5.4829
  5.5365   5.5437   5.5977   5.6522   5.7927   5.8552   5.9552   6.1639
  6.4655   6.5417   6.5874   6.6856   6.7125   6.7371   6.7440   6.7504
  6.7713   6.8020   6.8294   6.8707   6.8954   6.9471   7.1255   7.1353
  7.1552   7.1698   7.2123   7.2352   7.2755   7.3715   7.4338   7.4837
  7.6368   7.6704   7.7834   7.8485   8.0777   8.2844  35.8846  36.1292
 49.9579  50.1509  50.2236  50.2511
 
 Beta MOs
 -- Occupied --
-19.3776 -19.3674 -19.3673 -19.3611 -14.7753 -14.5982  -1.4435  -1.3087
 -1.2723  -1.1504  -0.8550  -0.7475  -0.7177  -0.6950  -0.6802  -0.5757
 -0.5693  -0.5441  -0.4821  -0.4760  -0.4572  -0.4463
 -- Virtual --
 -0.1416  -0.0287  -0.0161   0.0341   0.0870   0.1222   0.1336   0.1398
  0.1641   0.1677   0.1830   0.1928   0.2162   0.2362   0.2505   0.2607
  0.2785   0.2891   0.3004   0.3255   0.3323   0.3438   0.3483   0.3646
  0.3859   0.3898   0.4129   0.4370   0.4612   0.4821   0.5232   0.5433
  0.7731   0.7894   0.8272   0.8546   0.8668   0.8716   0.9349   0.9454
  0.9956   1.0196   1.0414   1.0544   1.0566   1.0780   1.0927   1.1030
  1.1155   1.1444   1.1454   1.1504   1.1726   1.1891   1.2663   1.3006
  1.3117   1.4003   1.4701   1.5081   1.5265   1.5617   1.5646   1.5806
  1.5922   1.6299   1.6601   1.6745   1.7275   1.7703   1.8287   1.8647
  1.9471   1.9684   2.0182   2.1124   2.1384   2.2359   2.2913   2.4276
  2.4615   2.4994   2.5145   2.5858   2.6783   2.7653   3.4882   3.5678
  3.6042   3.6230   3.6496   3.6542   3.6747   3.7231   3.7582   3.8270
  3.8469   3.8736   3.9725   3.9988   4.0560   4.1063   4.2736   4.4303
  4.4362   4.4734   4.5989   4.6371   4.6866   4.7085   4.7327   4.7516
  4.7627   4.8104   4.9676   4.9963   5.0122   5.0243   5.0322   5.0424
  5.0508   5.0736   5.0783   5.0846   5.0880   5.1123   5.1297   5.1399
  5.1645   5.2138   5.2361   5.2719   5.3078   5.3699   5.4171   5.4501
  5.4767   5.4971   5.5471   5.5636   5.6147   5.6722   5.8068   5.8669
  5.9687   6.1789   6.4793   6.5461   6.6292   6.7088   6.7397   6.7503
  6.7767   6.7966   6.8104   6.8195   6.8493   6.8940   6.9157   6.9503
  7.1407   7.1479   7.1716   7.2033   7.2253   7.2448   7.2956   7.3859
  7.4521   7.4988   7.6590   7.6983   7.7880   7.8526   8.1042   8.2892
 35.9064  36.1304  49.9694  50.1673  50.2276  50.2509
 --------------------------------------------------------------
 
 -----------------------------------------------------------------
                    Cartesian Multipole Moments
 -----------------------------------------------------------------
    Charge (ESU x 10^10)
                -0.0000
    Dipole Moment (Debye)
         X       0.3468      Y      -0.1146      Z       0.0132
       Tot       0.3655
    Quadrupole Moments (Debye-Ang)
        XX     -33.1815     XY      -0.4366     YY     -32.6764
        XZ       0.1894     YZ       1.1677     ZZ     -32.1313
    Octopole Moments (Debye-Ang^2)
       XXX     -34.4135    XXY     -12.6455    XYY     -10.9450
       YYY     -36.8457    XXZ     -96.7451    XYZ      -3.0595
       YYZ     -91.6887    XZZ     -10.1330    YZZ      -2.1944
       ZZZ    -275.6795
    Hexadecapole Moments (Debye-Ang^3)
      XXXX    -195.1769   XXXY     -96.1988   XXYY    -102.8525
      XYYY     -92.6699   YYYY    -410.1135   XXXZ     -80.0100
      XXYZ     -12.7179   XYYZ     -23.8959   YYYZ     -24.1095
      XXZZ    -331.0794   XYZZ     -43.8710   YYZZ    -347.3685
      XZZZ     -63.7097   YZZZ      25.5325   ZZZZ   -1691.4350
 -----------------------------------------------------------------
Archival summary:
1\1\centos77-c5\SP\ProcedureUnspecified\BasisUnspecified\42(3)\shihchen\MonJul1315:26:552020MonJul1315:26:552020\0\\#,ProcedureUnspecified,BasisUnspecified,\\0,3\N\O,1,1.17776\O,1,1.18763,2,133.051\O,1,1.47311,2,127.376,3,-179.147,0\N,4,1.56408,1,144.719,2,2.18313,0\O,5,1.18579,4,123.376,1,95.6949,0\\\@

 Total job time:  14.71s(wall), 78.73s(cpu) 
 Mon Jul 13 15:26:55 2020

        *************************************************************
        *                                                           *
        *  Thank you very much for using Q-Chem.  Have a nice day.  *
        *                                                           *
        *************************************************************


