                  Welcome to Q-Chem
     A Quantum Leap Into The Future Of Chemistry


 Q-Chem 5.3 (devel), Q-Chem, Inc., Pleasanton, CA (2020)

 Yihan Shao,  Zhengting Gan,  E. Epifanovsky,  A. T. B. Gilbert,  M. Wormit,  
 J. Kussmann,  A. W. Lange,  A. Behn,  Jia Deng,  Xintian Feng,  D. Ghosh,  
 M. Goldey,  P. R. Horn,  L. D. Jacobson,  I. Kaliman,  T. Kus,  A. Landau,  
 Jie Liu,  E. I. Proynov,  R. M. Richard,  R. P. Steele,  E. J. Sundstrom,  
 H. L. Woodcock III,  P. M. Zimmerman,  D. Zuev,  B. Alam,  B. Albrecht,  
 E. Alguire,  S. A. Baeppler,  D. Barton,  Z. Benda,  Y. A. Bernard,  
 E. J. Berquist,  K. B. Bravaya,  H. Burton,  K. Carter-Fenk,  D. Casanova,  
 Chun-Min Chang,  Yunqing Chen,  A. Chien,  K. D. Closser,  M. P. Coons,  
 S. Coriani,  S. Dasgupta,  A. L. Dempwolff,  M. Diedenhofen,  Hainam Do,  
 R. G. Edgar,  Po-Tung Fang,  S. Faraji,  S. Fatehi,  Qingguo Feng,  
 J. Fosso-Tande,  J. Gayvert,  Qinghui Ge,  A. Ghysels,  G. Gidofalvi,  
 J. Gomes,  J. Gonthier,  A. Gunina,  D. Hait,  M. W. D. Hanson-Heine,  
 P. H. P. Harbach,  A. W. Hauser,  M. F. Herbst,  J. E. Herr,  
 E. G. Hohenstein,  Z. C. Holden,  Kerwin Hui,  B. C. Huynh,  T.-C. Jagau,  
 Hyunjun Ji,  B. Kaduk,  K. Khistyaev,  Jaehoon Kim,  P. Klunzinger,  K. Koh,  
 D. Kosenkov,  L. Koulias,  T. Kowalczyk,  C. M. Krauter,  A. Kunitsa,  
 Ka Un Lao,  A. Laurent,  K. V. Lawler,  Joonho Lee,  D. Lefrancois,  
 S. Lehtola,  D. S. Levine,  Yi-Pei Li,  You-Sheng Lin,  Fenglai Liu,  
 Kuan-Yu Liu,  E. Livshits,  M. Loipersberger,  A. Luenser,  P. Manohar,  
 E. Mansoor,  S. F. Manzer,  Shan-Ping Mao,  Yuezhi Mao,  N. Mardirossian,  
 A. V. Marenich,  T. Markovich,  L. A. Martinez-Martinez,  S. A. Maurer,  
 N. J. Mayhall,  S. C. McKenzie,  J.-M. Mewes,  P. Morgante,  A. F. Morrison,  
 J. W. Mullinax,  K. Nanda,  T. S. Nguyen-Beck,  R. Olivares-Amaya,  
 K. J. Oosterbaan,  J. A. Parkhill,  S. K. Paul,  F. Pavosevic,  Zheng Pei,  
 T. M. Perrine,  F. Plasser,  P. Pokhilko,  S. Prager,  A. Prociuk,  
 E. Ramos,  B. Rana,  D. R. Rehn,  F. Rob,  M. Scheurer,  M. Schneider,  
 N. Sergueev,  S. M. Sharada,  S. Sharma,  D. W. Small,  T. Stauch,  
 C. J. Stein,  T. Stein,  Yu-Chuan Su,  S. P. Veccham,  Zhen Tao,  
 A. J. W. Thom,  A. Tkatchenko,  T. Tsuchimochi,  N. M. Tubman,  L. Vogt,  
 M. L. Vidal,  O. Vydrov,  M. A. Watson,  J. Wenzel,  M. de Wergifosse,  
 T. A. Wesolowski,  A. White,  J. Witte,  A. Yamada,  Jun Yang,  K. Yao,  
 S. Yeganeh,  S. R. Yost,  Zhi-Qiang You,  A. Zech,  Igor Ying Zhang,  
 Xing Zhang,  Yan Zhao,  Ying Zhu,  B. R. Brooks,  G. K. L. Chan,  
 C. J. Cramer,  M. S. Gordon,  W. J. Hehre,  A. Klamt,  M. W. Schmidt,  
 C. D. Sherrill,  D. G. Truhlar,  A. Aspuru-Guzik,  R. Baer,  A. T. Bell,  
 N. A. Besley,  Jeng-Da Chai,  A. E. DePrince, III,  R. A. DiStasio Jr.,  
 A. Dreuw,  B. D. Dunietz,  T. R. Furlani,  Chao-Ping Hsu,  Yousung Jung,  
 Jing Kong,  D. S. Lambrecht,  WanZhen Liang,  C. Ochsenfeld,  
 V. A. Rassolov,  L. V. Slipchenko,  J. E. Subotnik,  T. Van Voorhis,  
 J. M. Herbert,  A. I. Krylov,  P. M. W. Gill,  M. Head-Gordon

 Contributors to earlier versions of Q-Chem not listed above: 
 R. D. Adamson,  B. Austin,  J. Baker,  G. J. O. Beran,  K. Brandhorst,  
 S. T. Brown,  E. F. C. Byrd,  A. K. Chakraborty,  C.-L. Cheng,  
 Siu Hung Chien,  D. M. Chipman,  D. L. Crittenden,  H. Dachsel,  
 R. J. Doerksen,  A. D. Dutoi,  L. Fusti-Molnar,  W. A. Goddard III,  
 A. Golubeva-Zadorozhnaya,  S. R. Gwaltney,  G. Hawkins,  A. Heyden,  
 S. Hirata,  G. Kedziora,  F. J. Keil,  C. Kelley,  Jihan Kim,  R. A. King,  
 R. Z. Khaliullin,  P. P. Korambath,  W. Kurlancheek,  A. M. Lee,  M. S. Lee,  
 S. V. Levchenko,  Ching Yeh Lin,  D. Liotard,  R. C. Lochan,  I. Lotan,  
 P. E. Maslen,  N. Nair,  D. P. O'Neill,  D. Neuhauser,  E. Neuscamman,  
 C. M. Oana,  R. Olson,  B. Peters,  R. Peverati,  P. A. Pieniazek,  
 Y. M. Rhee,  J. Ritchie,  M. A. Rohrdanz,  E. Rosta,  N. J. Russ,  
 H. F. Schaefer III,  N. E. Schultz,  N. Shenvi,  A. C. Simmonett,  A. Sodt,  
 D. Stuck,  K. S. Thanthiriwatte,  V. Vanovschi,  Tao Wang,  A. Warshel,  
 C. F. Williams,  Q. Wu,  X. Xu,  W. Zhang

 Please cite Q-Chem as follows:
 Y. Shao et al., Mol. Phys. 113, 184-215 (2015)
 DOI: 10.1080/00268976.2014.952696

 Q-Chem 5.3.0 for Intel X86 EM64T Linux

 Parts of Q-Chem use Armadillo 9.800.1 (Horizon Scraper).
 http://arma.sourceforge.net/

 Q-Chem begins on Mon Jul 13 15:49:54 2020  

Host: centos77-c5
0

     Scratch files written to /tmp/29025.centos77-h1/qchem45188//
Processing $rem in /opt/qchem-5.3.0-intel2020u1//config/preferences:
Processing $rem in /home/shihchengli/.qchemrc:

Checking the input file for inconsistencies... 	...done.

--------------------------------------------------------------
User input:
--------------------------------------------------------------
$rem
   JOBTYPE  sp
   EXCHANGE   omegaB97X-D
   BASIS   6-311+G(2df,2pd)
   UNRESTRICTED   True
   max_scf_cycles   250
   geom_opt_max_cycles   1500
   basis2 6-31G*
   scf_algorithm rca_diis
   SYM_IGNORE  TRUE
   print_input   true
   geom_opt_dmax   80
   pop_mulliken false
   XC_GRID 000075000302
$end

$molecule
0 3
N       0.6908785665     1.1886233383     2.4829802912
O       0.3419818605     2.1944091418     1.9003067951
O       1.6204643309     0.9758276200     3.1699610206
N       0.1183469834     -1.1444223468     3.0216493187
O       -0.5711575166     -1.3102596114     4.3111853710
O       -0.2555230947     0.1908109681     2.2142170934
$end
--------------------------------------------------------------
 ----------------------------------------------------------------
             Standard Nuclear Orientation (Angstroms)
    I     Atom           X                Y                Z
 ----------------------------------------------------------------
    1      N       0.6908785665     1.1886233383     2.4829802912
    2      O       0.3419818605     2.1944091418     1.9003067951
    3      O       1.6204643309     0.9758276200     3.1699610206
    4      N       0.1183469834    -1.1444223468     3.0216493187
    5      O      -0.5711575166    -1.3102596114     4.3111853710
    6      O      -0.2555230947     0.1908109681     2.2142170934
 ----------------------------------------------------------------
 Nuclear Repulsion Energy =         226.10319709 hartrees
 There are       24 alpha and       22 beta electrons
 Requested basis set is 6-311+G(2df,2pd)
 There are 48 shells and 204 basis functions

 Total QAlloc Memory Limit   2000 MB
 Mega-Array Size       188 MB
 MEM_STATIC part       192 MB

                       Distance Matrix (Angstroms)
             N (  1)   O (  2)   O (  3)   N (  4)   O (  5)
   O (  2)  1.213607
   O (  3)  1.175310  2.175197
   N (  4)  2.461922  3.529195  2.602655
   O (  5)  3.343574  4.350731  3.366273  1.471673
   O (  6)  1.401263  2.114227  2.247004  1.604548  2.598098
 
 A cutoff of  1.0D-09 yielded   1024 shell pairs
 There are     19088 function pairs (     25017 Cartesian)
 Smallest overlap matrix eigenvalue = 7.23E-04

 Scale SEOQF with 1.000000e-01/1.000000e-01/1.000000e-01

 Standard Electronic Orientation quadrupole field applied
 Nucleus-field energy     =    -0.0000000366 hartrees
 Requested basis set is 6-31G(d)
 There are 24 shells and 84 basis functions
 A cutoff of  1.0D-09 yielded    267 shell pairs
 There are      3530 function pairs (      4058 Cartesian)
 Smallest overlap matrix eigenvalue = 4.88E-03
 Guess from superposition of atomic densities
 Warning:  Energy on first SCF cycle will be non-variational
 SAD guess density has 46.000000 electrons
 Long-range K will be added via erf
 Coulomb attenuation parameter = 0.2 bohr**(-1)
 An unrestricted hybrid HF-DFT SCF calculation will be
 performed using Relaxed Constraint Minimization + Pulay DIIS
 Exchange:     0.2220 Hartree-Fock + 1.0000 wB97X-D + LR-HF
 Correlation:  1.0000 wB97X-D
 Using Euler-Maclaurin-Lebedev (75,302) quadrature formula
 Dispersion:   Grimme D
 SCF converges when DIIS error is below 1.0E-04
 using 6 threads for integral computing
 -------------------------------------------------------
 OpenMP Integral computing Module                
 Release: version 1.0, May 2013, Q-Chem Inc. Pittsburgh 
 -------------------------------------------------------
 using 6 threads for integral computing
 -------------------------------------------------------
 OpenMP Integral computing Module                
 Release: version 1.0, May 2013, Q-Chem Inc. Pittsburgh 
 -------------------------------------------------------
 ---------------------------------------
  Cycle       Energy         DIIS Error
 ---------------------------------------
    1    -410.5046494971      7.87E-02
    2    -409.5104065045      2.14E-02
    3    -409.6247861568      7.84E-03
    4    -409.8031102558      6.55E-03
    5    -409.8299967662      2.53E-03
    6    -409.8575012269      3.49E-03
    7    -409.8609686220      4.26E-04 Done RCA. Switching to DIIS
    8    -409.8665638270      4.97E-04
    9    -409.8682918901      1.58E-04
   10    -409.8689599557      1.09E-04
   11    -409.8692648526      8.39E-05 Convergence criterion met
 ---------------------------------------
 <S^2> = 2.0159
 SCF time:  CPU 19.28 s  wall 3.23 s
 SCF   energy in the small basis set = -409.86926485
 Total energy in the small basis set = -409.86926485
 ----------------------------------------------------
  Cycle       Energy    
 ----------------------------------------------------
    1     -41.5790199567     -4.16E+01
 Long-range K will be added via erf
 Coulomb attenuation parameter = 0.2 bohr**(-1)
 An unrestricted hybrid HF-DFT SCF calculation will be
 performed using Relaxed Constraint Minimization + Pulay DIIS
 Exchange:     0.2220 Hartree-Fock + 1.0000 wB97X-D + LR-HF
 Correlation:  1.0000 wB97X-D
 Using Euler-Maclaurin-Lebedev (75,302) quadrature formula
 Dispersion:   Grimme D
 SCF converges when DIIS error is below 1.0E-05
 Basis2 calculation detected. Using small basis as guess for larger.
 SCFMinFind is unable to tell whether the solution found is close.
 Resetting ReadMinima to 0 and attempting to follow guess.
 SCFMinFind following SCF Guess.
 using 6 threads for integral computing
 -------------------------------------------------------
 OpenMP Integral computing Module                
 Release: version 1.0, May 2013, Q-Chem Inc. Pittsburgh 
 -------------------------------------------------------
 using 6 threads for integral computing
 -------------------------------------------------------
 OpenMP Integral computing Module                
 Release: version 1.0, May 2013, Q-Chem Inc. Pittsburgh 
 -------------------------------------------------------
 ---------------------------------------
  Cycle       Energy         DIIS Error
 ---------------------------------------
    1    -409.8997455078      8.41E-03
    2    -409.8672191598      6.39E-03
    3    -409.9082170689      2.79E-03
    4    -409.9850084642      1.23E-03
    5    -410.0035904917      1.83E-03
    6    -410.0090259077      3.69E-04 Done RCA. Switching to DIIS
    7    -410.0189684935      4.21E-04
    8    -410.0203912234      6.64E-05
    9    -410.0207181394      5.12E-05
   10    -410.0209685852      3.66E-05
   11    -410.0210767231      2.59E-05
   12    -410.0211373808      1.54E-05
   13    -410.0211866192      8.57E-06 Convergence criterion met
 ---------------------------------------
 <S^2> = 2.0170
 SCF time:  CPU 82.20 s  wall 13.73 s
 SCF   energy in the final basis set = -410.02118662
 Total energy in the final basis set = -410.02118662
 
 --------------------------------------------------------------
 
                    Orbital Energies (a.u.)
 --------------------------------------------------------------
 
 Alpha MOs
 -- Occupied --
-19.4318 -19.4210 -19.3531 -19.3399 -14.7759 -14.6521  -1.4432  -1.2579
 -1.2445  -1.1939  -0.9241  -0.7829  -0.7185  -0.7154  -0.6792  -0.6262
 -0.5928  -0.5777  -0.5183  -0.4914  -0.4742  -0.4588  -0.4440  -0.4191
 -- Virtual --
 -0.0332  -0.0166   0.0739   0.0797   0.1305   0.1342   0.1384   0.1474
  0.1780   0.1829   0.1914   0.2254   0.2377   0.2474   0.2659   0.2704
  0.2846   0.2991   0.3269   0.3399   0.3424   0.3546   0.3587   0.3681
  0.3948   0.4274   0.4422   0.4542   0.4648   0.5202   0.7413   0.7594
  0.8066   0.8276   0.8440   0.8840   0.9249   0.9490   0.9517   0.9947
  1.0235   1.0281   1.0385   1.0614   1.0782   1.0854   1.1153   1.1245
  1.1310   1.1512   1.1568   1.1793   1.2190   1.2325   1.2584   1.3416
  1.4419   1.4721   1.5030   1.5264   1.5536   1.5711   1.5814   1.5955
  1.6139   1.6314   1.7003   1.7157   1.7839   1.8030   1.8792   1.9197
  1.9694   1.9734   2.0997   2.1843   2.2607   2.3486   2.3740   2.3897
  2.5314   2.5490   2.6868   2.7946   3.4867   3.5376   3.5700   3.5964
  3.6111   3.6503   3.6613   3.6713   3.7054   3.7065   3.7554   3.7979
  3.8055   3.8871   4.0032   4.0048   4.0810   4.1196   4.4227   4.4507
  4.4860   4.5219   4.6440   4.6820   4.7087   4.7694   4.7851   4.8264
  4.8560   4.9131   4.9652   4.9851   4.9925   4.9987   5.0122   5.0213
  5.0448   5.0491   5.0719   5.0905   5.1048   5.1146   5.1281   5.1409
  5.1695   5.1971   5.2064   5.3081   5.3461   5.3993   5.4159   5.4311
  5.4816   5.5434   5.5531   5.6580   5.6687   5.7346   5.8752   5.9003
  5.9840   6.1907   6.3397   6.4897   6.5160   6.6600   6.6696   6.7027
  6.7693   6.7864   6.8284   6.8696   6.8704   6.9292   6.9917   7.0060
  7.0497   7.1086   7.1345   7.1755   7.2679   7.3223   7.3814   7.4982
  7.5752   7.6743   7.8408   7.8475   7.9097   8.2203  35.3389  36.1044
 49.8589  49.9964  50.2087  50.2705
 
 Beta MOs
 -- Occupied --
-19.4168 -19.4055 -19.3531 -19.3390 -14.7754 -14.6349  -1.4409  -1.2540
 -1.2164  -1.1410  -0.8718  -0.7611  -0.7172  -0.7065  -0.6729  -0.5884
 -0.5398  -0.4912  -0.4770  -0.4718  -0.4560  -0.4396
 -- Virtual --
 -0.1664  -0.0827  -0.0262   0.0171   0.0823   0.1011   0.1364   0.1388
  0.1406   0.1603   0.1791   0.1844   0.1966   0.2268   0.2407   0.2483
  0.2663   0.2750   0.2874   0.3015   0.3277   0.3405   0.3431   0.3562
  0.3595   0.3688   0.3965   0.4288   0.4438   0.4557   0.4676   0.5227
  0.7498   0.7673   0.8159   0.8428   0.8694   0.8885   0.9316   0.9563
  0.9643   1.0157   1.0351   1.0398   1.0452   1.0783   1.0852   1.0894
  1.1276   1.1339   1.1505   1.1573   1.1684   1.1878   1.2285   1.2394
  1.2673   1.3570   1.4667   1.4893   1.5195   1.5434   1.5605   1.5838
  1.5945   1.6157   1.6353   1.6503   1.7052   1.7340   1.7880   1.8079
  1.8907   1.9265   1.9757   1.9840   2.1211   2.1864   2.2783   2.3522
  2.3779   2.4059   2.5325   2.5507   2.6911   2.7966   3.5112   3.5693
  3.5878   3.6153   3.6416   3.6644   3.6733   3.6867   3.7173   3.7305
  3.7765   3.8175   3.8812   3.9044   4.0052   4.0236   4.0882   4.1297
  4.4251   4.4530   4.4881   4.5235   4.6485   4.6992   4.7209   4.8118
  4.8406   4.8732   4.9007   4.9649   5.0043   5.0202   5.0280   5.0448
  5.0492   5.0583   5.0638   5.0650   5.0929   5.0942   5.1166   5.1283
  5.1443   5.1645   5.1889   5.2107   5.2172   5.3428   5.3553   5.4009
  5.4247   5.4397   5.4891   5.5520   5.5864   5.6704   5.6920   5.7571
  5.8856   5.9025   5.9904   6.2090   6.3471   6.5063   6.5302   6.7023
  6.7642   6.7705   6.7774   6.7893   6.8320   6.8707   6.8714   6.9604
  6.9997   7.0507   7.0962   7.1141   7.1532   7.1783   7.2709   7.3291
  7.3875   7.5405   7.5790   7.6845   7.8437   7.8540   7.9133   8.2217
 35.3634  36.1050  49.8871  50.0018  50.2096  50.2705
 --------------------------------------------------------------
 
 -----------------------------------------------------------------
                    Cartesian Multipole Moments
 -----------------------------------------------------------------
    Charge (ESU x 10^10)
                 0.0000
    Dipole Moment (Debye)
         X      -0.3092      Y      -0.9736      Z       0.2526
       Tot       1.0523
    Quadrupole Moments (Debye-Ang)
        XX     -33.3468     XY      -0.7516     YY     -34.8857
        XZ      -2.3140     YZ      -1.2984     ZZ     -30.9862
    Octopole Moments (Debye-Ang^2)
       XXX     -33.5976    XXY     -12.2079    XYY     -11.7203
       YYY     -41.5067    XXZ     -96.6635    XYZ      -3.2701
       YYZ     -95.1013    XZZ     -20.4991    YZZ     -11.3299
       ZZZ    -270.7189
    Hexadecapole Moments (Debye-Ang^3)
      XXXX    -143.8106   XXXY     -61.7511   XXYY     -85.5722
      XYYY     -64.5272   YYYY    -371.8665   XXXZ     -87.4994
      XXYZ     -12.3302   XYYZ     -28.4634   YYYZ     -39.7484
      XXZZ    -325.3244   XYZZ     -31.9517   YYZZ    -343.9381
      XZZZ    -117.0809   YZZZ     -15.7990   ZZZZ   -1694.7036
 -----------------------------------------------------------------
Archival summary:
1\1\centos77-c5\SP\ProcedureUnspecified\BasisUnspecified\42(3)\shihchen\MonJul1315:50:142020MonJul1315:50:142020\0\\#,ProcedureUnspecified,BasisUnspecified,\\0,3\N\O,1,1.17531\O,1,1.21361,2,131.153\O,1,1.40126,2,121.156,3,-179.824,0\N,4,1.60455,1,109.796,2,2.67652,0\O,5,1.47167,4,115.185,1,95.6949,0\\\@

 Total job time:  19.27s(wall), 105.64s(cpu) 
 Mon Jul 13 15:50:14 2020

        *************************************************************
        *                                                           *
        *  Thank you very much for using Q-Chem.  Have a nice day.  *
        *                                                           *
        *************************************************************


