                  Welcome to Q-Chem
     A Quantum Leap Into The Future Of Chemistry


 Q-Chem 5.3 (devel), Q-Chem, Inc., Pleasanton, CA (2020)

 Yihan Shao,  Zhengting Gan,  E. Epifanovsky,  A. T. B. Gilbert,  M. Wormit,  
 J. Kussmann,  A. W. Lange,  A. Behn,  Jia Deng,  Xintian Feng,  D. Ghosh,  
 M. Goldey,  P. R. Horn,  L. D. Jacobson,  I. Kaliman,  T. Kus,  A. Landau,  
 Jie Liu,  E. I. Proynov,  R. M. Richard,  R. P. Steele,  E. J. Sundstrom,  
 H. L. Woodcock III,  P. M. Zimmerman,  D. Zuev,  B. Alam,  B. Albrecht,  
 E. Alguire,  S. A. Baeppler,  D. Barton,  Z. Benda,  Y. A. Bernard,  
 E. J. Berquist,  K. B. Bravaya,  H. Burton,  K. Carter-Fenk,  D. Casanova,  
 Chun-Min Chang,  Yunqing Chen,  A. Chien,  K. D. Closser,  M. P. Coons,  
 S. Coriani,  S. Dasgupta,  A. L. Dempwolff,  M. Diedenhofen,  Hainam Do,  
 R. G. Edgar,  Po-Tung Fang,  S. Faraji,  S. Fatehi,  Qingguo Feng,  
 J. Fosso-Tande,  J. Gayvert,  Qinghui Ge,  A. Ghysels,  G. Gidofalvi,  
 J. Gomes,  J. Gonthier,  A. Gunina,  D. Hait,  M. W. D. Hanson-Heine,  
 P. H. P. Harbach,  A. W. Hauser,  M. F. Herbst,  J. E. Herr,  
 E. G. Hohenstein,  Z. C. Holden,  Kerwin Hui,  B. C. Huynh,  T.-C. Jagau,  
 Hyunjun Ji,  B. Kaduk,  K. Khistyaev,  Jaehoon Kim,  P. Klunzinger,  K. Koh,  
 D. Kosenkov,  L. Koulias,  T. Kowalczyk,  C. M. Krauter,  A. Kunitsa,  
 Ka Un Lao,  A. Laurent,  K. V. Lawler,  Joonho Lee,  D. Lefrancois,  
 S. Lehtola,  D. S. Levine,  Yi-Pei Li,  You-Sheng Lin,  Fenglai Liu,  
 Kuan-Yu Liu,  E. Livshits,  M. Loipersberger,  A. Luenser,  P. Manohar,  
 E. Mansoor,  S. F. Manzer,  Shan-Ping Mao,  Yuezhi Mao,  N. Mardirossian,  
 A. V. Marenich,  T. Markovich,  L. A. Martinez-Martinez,  S. A. Maurer,  
 N. J. Mayhall,  S. C. McKenzie,  J.-M. Mewes,  P. Morgante,  A. F. Morrison,  
 J. W. Mullinax,  K. Nanda,  T. S. Nguyen-Beck,  R. Olivares-Amaya,  
 K. J. Oosterbaan,  J. A. Parkhill,  S. K. Paul,  F. Pavosevic,  Zheng Pei,  
 T. M. Perrine,  F. Plasser,  P. Pokhilko,  S. Prager,  A. Prociuk,  
 E. Ramos,  B. Rana,  D. R. Rehn,  F. Rob,  M. Scheurer,  M. Schneider,  
 N. Sergueev,  S. M. Sharada,  S. Sharma,  D. W. Small,  T. Stauch,  
 C. J. Stein,  T. Stein,  Yu-Chuan Su,  S. P. Veccham,  Zhen Tao,  
 A. J. W. Thom,  A. Tkatchenko,  T. Tsuchimochi,  N. M. Tubman,  L. Vogt,  
 M. L. Vidal,  O. Vydrov,  M. A. Watson,  J. Wenzel,  M. de Wergifosse,  
 T. A. Wesolowski,  A. White,  J. Witte,  A. Yamada,  Jun Yang,  K. Yao,  
 S. Yeganeh,  S. R. Yost,  Zhi-Qiang You,  A. Zech,  Igor Ying Zhang,  
 Xing Zhang,  Yan Zhao,  Ying Zhu,  B. R. Brooks,  G. K. L. Chan,  
 C. J. Cramer,  M. S. Gordon,  W. J. Hehre,  A. Klamt,  M. W. Schmidt,  
 C. D. Sherrill,  D. G. Truhlar,  A. Aspuru-Guzik,  R. Baer,  A. T. Bell,  
 N. A. Besley,  Jeng-Da Chai,  A. E. DePrince, III,  R. A. DiStasio Jr.,  
 A. Dreuw,  B. D. Dunietz,  T. R. Furlani,  Chao-Ping Hsu,  Yousung Jung,  
 Jing Kong,  D. S. Lambrecht,  WanZhen Liang,  C. Ochsenfeld,  
 V. A. Rassolov,  L. V. Slipchenko,  J. E. Subotnik,  T. Van Voorhis,  
 J. M. Herbert,  A. I. Krylov,  P. M. W. Gill,  M. Head-Gordon

 Contributors to earlier versions of Q-Chem not listed above: 
 R. D. Adamson,  B. Austin,  J. Baker,  G. J. O. Beran,  K. Brandhorst,  
 S. T. Brown,  E. F. C. Byrd,  A. K. Chakraborty,  C.-L. Cheng,  
 Siu Hung Chien,  D. M. Chipman,  D. L. Crittenden,  H. Dachsel,  
 R. J. Doerksen,  A. D. Dutoi,  L. Fusti-Molnar,  W. A. Goddard III,  
 A. Golubeva-Zadorozhnaya,  S. R. Gwaltney,  G. Hawkins,  A. Heyden,  
 S. Hirata,  G. Kedziora,  F. J. Keil,  C. Kelley,  Jihan Kim,  R. A. King,  
 R. Z. Khaliullin,  P. P. Korambath,  W. Kurlancheek,  A. M. Lee,  M. S. Lee,  
 S. V. Levchenko,  Ching Yeh Lin,  D. Liotard,  R. C. Lochan,  I. Lotan,  
 P. E. Maslen,  N. Nair,  D. P. O'Neill,  D. Neuhauser,  E. Neuscamman,  
 C. M. Oana,  R. Olson,  B. Peters,  R. Peverati,  P. A. Pieniazek,  
 Y. M. Rhee,  J. Ritchie,  M. A. Rohrdanz,  E. Rosta,  N. J. Russ,  
 H. F. Schaefer III,  N. E. Schultz,  N. Shenvi,  A. C. Simmonett,  A. Sodt,  
 D. Stuck,  K. S. Thanthiriwatte,  V. Vanovschi,  Tao Wang,  A. Warshel,  
 C. F. Williams,  Q. Wu,  X. Xu,  W. Zhang

 Please cite Q-Chem as follows:
 Y. Shao et al., Mol. Phys. 113, 184-215 (2015)
 DOI: 10.1080/00268976.2014.952696

 Q-Chem 5.3.0 for Intel X86 EM64T Linux

 Parts of Q-Chem use Armadillo 9.800.1 (Horizon Scraper).
 http://arma.sourceforge.net/

 Q-Chem begins on Mon Jul 13 15:35:21 2020  

Host: centos77-c5
0

     Scratch files written to /tmp/29025.centos77-h1/qchem48257//
Processing $rem in /opt/qchem-5.3.0-intel2020u1//config/preferences:
Processing $rem in /home/shihchengli/.qchemrc:

Checking the input file for inconsistencies... 	...done.

--------------------------------------------------------------
User input:
--------------------------------------------------------------
$rem
   JOBTYPE  sp
   EXCHANGE   omegaB97X-D
   BASIS   6-311+G(2df,2pd)
   UNRESTRICTED   True
   max_scf_cycles   250
   geom_opt_max_cycles   1500
   basis2 6-31G*
   scf_algorithm rca_diis
   SYM_IGNORE  TRUE
   print_input   true
   geom_opt_dmax   80
   pop_mulliken false
   XC_GRID 000075000302
$end

$molecule
0 3
N       0.6648478999     1.2930983435     2.4447108204
O       0.4636712032     2.3236380167     1.9078569472
O       1.5713791265     0.9949801656     3.1199961171
N       0.0855446598     -1.2869832183     3.1626705166
O       -0.5329247782     -1.2581815338     4.1672884132
O       -0.3075269811     0.0284373362     2.2977770756
$end
--------------------------------------------------------------
 ----------------------------------------------------------------
             Standard Nuclear Orientation (Angstroms)
    I     Atom           X                Y                Z
 ----------------------------------------------------------------
    1      N       0.6648478999     1.2930983435     2.4447108204
    2      O       0.4636712032     2.3236380167     1.9078569472
    3      O       1.5713791265     0.9949801656     3.1199961171
    4      N       0.0855446598    -1.2869832183     3.1626705166
    5      O      -0.5329247782    -1.2581815338     4.1672884132
    6      O      -0.3075269811     0.0284373362     2.2977770756
 ----------------------------------------------------------------
 Nuclear Repulsion Energy =         227.19661231 hartrees
 There are       24 alpha and       22 beta electrons
 Requested basis set is 6-311+G(2df,2pd)
 There are 48 shells and 204 basis functions

 Total QAlloc Memory Limit   2000 MB
 Mega-Array Size       188 MB
 MEM_STATIC part       192 MB

                       Distance Matrix (Angstroms)
             N (  1)   O (  2)   O (  3)   N (  4)   O (  5)
   O (  2)  1.179278
   O (  3)  1.169052  2.112257
   N (  4)  2.740051  3.841110  2.723395
   O (  5)  3.303175  4.350594  3.256018  1.180081
   O (  6)  1.602021  2.452495  2.267275  1.622614  2.280628
 
 A cutoff of  1.0D-09 yielded   1015 shell pairs
 There are     18930 function pairs (     24817 Cartesian)
 Smallest overlap matrix eigenvalue = 7.17E-04

 Scale SEOQF with 1.000000e-01/1.000000e-01/1.000000e-01

 Standard Electronic Orientation quadrupole field applied
 Nucleus-field energy     =    -0.0000000356 hartrees
 Requested basis set is 6-31G(d)
 There are 24 shells and 84 basis functions
 A cutoff of  1.0D-09 yielded    263 shell pairs
 There are      3452 function pairs (      3961 Cartesian)
 Smallest overlap matrix eigenvalue = 5.76E-03
 Guess from superposition of atomic densities
 Warning:  Energy on first SCF cycle will be non-variational
 SAD guess density has 46.000000 electrons
 Long-range K will be added via erf
 Coulomb attenuation parameter = 0.2 bohr**(-1)
 An unrestricted hybrid HF-DFT SCF calculation will be
 performed using Relaxed Constraint Minimization + Pulay DIIS
 Exchange:     0.2220 Hartree-Fock + 1.0000 wB97X-D + LR-HF
 Correlation:  1.0000 wB97X-D
 Using Euler-Maclaurin-Lebedev (75,302) quadrature formula
 Dispersion:   Grimme D
 SCF converges when DIIS error is below 1.0E-04
 using 6 threads for integral computing
 -------------------------------------------------------
 OpenMP Integral computing Module                
 Release: version 1.0, May 2013, Q-Chem Inc. Pittsburgh 
 -------------------------------------------------------
 using 6 threads for integral computing
 -------------------------------------------------------
 OpenMP Integral computing Module                
 Release: version 1.0, May 2013, Q-Chem Inc. Pittsburgh 
 -------------------------------------------------------
 ---------------------------------------
  Cycle       Energy         DIIS Error
 ---------------------------------------
    1    -410.8689060486      8.63E-02
    2    -409.6497402378      1.87E-02
    3    -409.7500650084      3.82E-03
    4    -409.8897017892      3.83E-03
    5    -409.8940570047      6.41E-04 Done RCA. Switching to DIIS
    6    -409.9004451119      5.16E-04
    7    -409.9009102611      1.08E-04
    8    -409.9010537002      8.81E-05 Convergence criterion met
 ---------------------------------------
 <S^2> = 2.0201
 SCF time:  CPU 13.89 s  wall 2.33 s
 SCF   energy in the small basis set = -409.90105370
 Total energy in the small basis set = -409.90105370
 ----------------------------------------------------
  Cycle       Energy    
 ----------------------------------------------------
    1     -41.7056100245     -4.17E+01
 Long-range K will be added via erf
 Coulomb attenuation parameter = 0.2 bohr**(-1)
 An unrestricted hybrid HF-DFT SCF calculation will be
 performed using Relaxed Constraint Minimization + Pulay DIIS
 Exchange:     0.2220 Hartree-Fock + 1.0000 wB97X-D + LR-HF
 Correlation:  1.0000 wB97X-D
 Using Euler-Maclaurin-Lebedev (75,302) quadrature formula
 Dispersion:   Grimme D
 SCF converges when DIIS error is below 1.0E-05
 Basis2 calculation detected. Using small basis as guess for larger.
 SCFMinFind is unable to tell whether the solution found is close.
 Resetting ReadMinima to 0 and attempting to follow guess.
 SCFMinFind following SCF Guess.
 using 6 threads for integral computing
 -------------------------------------------------------
 OpenMP Integral computing Module                
 Release: version 1.0, May 2013, Q-Chem Inc. Pittsburgh 
 -------------------------------------------------------
 using 6 threads for integral computing
 -------------------------------------------------------
 OpenMP Integral computing Module                
 Release: version 1.0, May 2013, Q-Chem Inc. Pittsburgh 
 -------------------------------------------------------
 ---------------------------------------
  Cycle       Energy         DIIS Error
 ---------------------------------------
    1    -409.9890474615      8.03E-03
    2    -409.9999154711      4.15E-03
    3    -410.0215712874      1.02E-03
    4    -410.0518292145      1.11E-03
    5    -410.0536900646      1.68E-04 Done RCA. Switching to DIIS
    6    -410.0564557545      1.73E-04
    7    -410.0567110635      4.60E-05
    8    -410.0567670411      2.66E-05
    9    -410.0568038538      1.11E-05
   10    -410.0568142051      7.77E-06 Convergence criterion met
 ---------------------------------------
 <S^2> = 2.0229
 SCF time:  CPU 61.45 s  wall 10.27 s
 SCF   energy in the final basis set = -410.05681421
 Total energy in the final basis set = -410.05681421
 
 --------------------------------------------------------------
 
                    Orbital Energies (a.u.)
 --------------------------------------------------------------
 
 Alpha MOs
 -- Occupied --
-19.4019 -19.3924 -19.3661 -19.3485 -14.7639 -14.6172  -1.4409  -1.3659
 -1.2628  -1.1606  -0.8570  -0.7780  -0.7179  -0.7100  -0.6780  -0.6563
 -0.6349  -0.6276  -0.4931  -0.4782  -0.4683  -0.4590  -0.4460  -0.3373
 -- Virtual --
 -0.0283  -0.0230   0.0475   0.0998   0.1212   0.1353   0.1403   0.1674
  0.1751   0.1827   0.2272   0.2408   0.2482   0.2707   0.2783   0.2836
  0.3059   0.3379   0.3405   0.3464   0.3556   0.3620   0.3671   0.3894
  0.4040   0.4334   0.4402   0.4507   0.4951   0.5292   0.7454   0.7704
  0.8067   0.8158   0.8478   0.9174   0.9316   0.9354   0.9632   1.0122
  1.0348   1.0458   1.0594   1.0718   1.0823   1.0951   1.1174   1.1286
  1.1405   1.1504   1.1610   1.1696   1.2212   1.2521   1.2952   1.3369
  1.3829   1.4565   1.5225   1.5390   1.5567   1.5784   1.5971   1.6089
  1.6655   1.6746   1.7222   1.7697   1.8195   1.8636   1.8705   1.8937
  1.9472   2.1168   2.1626   2.2210   2.2932   2.3479   2.3951   2.4842
  2.5166   2.5480   2.6227   2.7612   3.4787   3.5485   3.5854   3.6096
  3.6358   3.6647   3.6906   3.7076   3.7570   3.7800   3.7939   3.8836
  3.9247   3.9473   4.0009   4.0222   4.0931   4.4451   4.4530   4.4771
  4.5098   4.5784   4.6508   4.6535   4.6812   4.6849   4.7594   4.8122
  4.8520   4.9421   5.0006   5.0106   5.0144   5.0299   5.0337   5.0380
  5.0521   5.0693   5.0749   5.1014   5.1132   5.1304   5.1516   5.1760
  5.1965   5.2519   5.2987   5.3473   5.3929   5.4087   5.4095   5.4517
  5.4898   5.5957   5.6543   5.6728   5.6953   5.7083   5.9527   6.0900
  6.1830   6.3123   6.5996   6.6032   6.6627   6.7191   6.7517   6.7613
  6.7896   6.8068   6.8676   6.8769   6.9132   7.0002   7.0635   7.1223
  7.1540   7.1778   7.1957   7.2417   7.2456   7.3787   7.4249   7.5678
  7.5825   7.6591   7.6785   7.8064   7.8531   8.2207  35.9013  36.1607
 49.9760  50.1408  50.2317  50.2580
 
 Beta MOs
 -- Occupied --
-19.3818 -19.3797 -19.3648 -19.3489 -14.7629 -14.6018  -1.4387  -1.3255
 -1.2610  -1.1206  -0.8177  -0.7468  -0.7086  -0.7044  -0.6737  -0.5965
 -0.5786  -0.5596  -0.4706  -0.4640  -0.4544  -0.4425
 -- Virtual --
 -0.1560  -0.0360  -0.0214   0.0251   0.0877   0.1057   0.1256   0.1406
  0.1451   0.1686   0.1790   0.1873   0.2287   0.2441   0.2516   0.2722
  0.2816   0.2863   0.3131   0.3393   0.3411   0.3493   0.3578   0.3642
  0.3713   0.3962   0.4144   0.4364   0.4465   0.4533   0.5104   0.5330
  0.7522   0.7787   0.8206   0.8318   0.8618   0.9217   0.9347   0.9416
  0.9729   1.0213   1.0436   1.0599   1.0703   1.0838   1.0913   1.1097
  1.1261   1.1433   1.1469   1.1596   1.1773   1.1846   1.2349   1.2639
  1.3061   1.3486   1.4000   1.4660   1.5277   1.5425   1.5708   1.5919
  1.6070   1.6270   1.6770   1.6941   1.7417   1.7924   1.8246   1.8673
  1.8772   1.9113   1.9625   2.1304   2.1761   2.2360   2.3065   2.3566
  2.4062   2.4980   2.5266   2.5500   2.6281   2.7654   3.4925   3.5746
  3.6029   3.6297   3.6572   3.6673   3.7078   3.7143   3.7757   3.8057
  3.8487   3.8967   3.9424   3.9804   4.0167   4.0240   4.1024   4.4476
  4.4564   4.4794   4.5124   4.6075   4.6585   4.6771   4.6910   4.7395
  4.7936   4.8359   4.8912   4.9903   5.0203   5.0312   5.0370   5.0389
  5.0541   5.0584   5.0710   5.0812   5.0990   5.1169   5.1337   5.1488
  5.1806   5.1943   5.2204   5.2823   5.3198   5.3637   5.4032   5.4121
  5.4132   5.4680   5.5192   5.6264   5.6680   5.6942   5.7047   5.7239
  5.9617   6.1281   6.1950   6.3170   6.6010   6.6460   6.7038   6.7642
  6.7895   6.7950   6.8089   6.8249   6.8691   6.8814   6.9430   7.0223
  7.0865   7.1276   7.1785   7.1950   7.2251   7.2534   7.2702   7.4043
  7.4279   7.5752   7.6093   7.6814   7.7004   7.8269   7.8555   8.2229
 35.9198  36.1620  49.9901  50.1597  50.2329  50.2579
 --------------------------------------------------------------
 
 -----------------------------------------------------------------
                    Cartesian Multipole Moments
 -----------------------------------------------------------------
    Charge (ESU x 10^10)
                 0.0000
    Dipole Moment (Debye)
         X      -0.1112      Y      -0.3610      Z       0.1059
       Tot       0.3923
    Quadrupole Moments (Debye-Ang)
        XX     -33.0726     XY      -0.6027     YY     -32.3254
        XZ      -1.3387     YZ      -0.4394     ZZ     -31.6273
    Octopole Moments (Debye-Ang^2)
       XXX     -33.1137    XXY     -12.1701    XYY     -11.0875
       YYY     -39.8913    XXZ     -95.9024    XYZ      -3.0490
       YYZ     -88.4141    XZZ     -15.7084    YZZ     -10.4287
       ZZZ    -272.7803
    Hexadecapole Moments (Debye-Ang^3)
      XXXX    -139.2939   XXXY     -65.8929   XXYY     -87.9170
      XYYY     -66.3135   YYYY    -388.5666   XXXZ     -84.8725
      XXYZ     -12.6229   XYYZ     -27.2737   YYYZ     -37.2484
      XXZZ    -320.4216   XYZZ     -33.6598   YYZZ    -328.1470
      XZZZ     -93.0037   YZZZ     -15.0394   ZZZZ   -1686.3285
 -----------------------------------------------------------------
Archival summary:
1\1\centos77-c5\SP\ProcedureUnspecified\BasisUnspecified\42(3)\shihchen\MonJul1315:35:362020MonJul1315:35:362020\0\\#,ProcedureUnspecified,BasisUnspecified,\\0,3\N\O,1,1.16905\O,1,1.17928,2,128.177\O,1,1.60202,2,108.804,3,178.219,0\N,4,1.62261,1,116.362,2,4.46905,0\O,5,1.18008,4,107.88,1,95.682,0\\\@

 Total job time:  14.87s(wall), 79.52s(cpu) 
 Mon Jul 13 15:35:36 2020

        *************************************************************
        *                                                           *
        *  Thank you very much for using Q-Chem.  Have a nice day.  *
        *                                                           *
        *************************************************************


