                  Welcome to Q-Chem
     A Quantum Leap Into The Future Of Chemistry


 Q-Chem 5.3 (devel), Q-Chem, Inc., Pleasanton, CA (2020)

 Yihan Shao,  Zhengting Gan,  E. Epifanovsky,  A. T. B. Gilbert,  M. Wormit,  
 J. Kussmann,  A. W. Lange,  A. Behn,  Jia Deng,  Xintian Feng,  D. Ghosh,  
 M. Goldey,  P. R. Horn,  L. D. Jacobson,  I. Kaliman,  T. Kus,  A. Landau,  
 Jie Liu,  E. I. Proynov,  R. M. Richard,  R. P. Steele,  E. J. Sundstrom,  
 H. L. Woodcock III,  P. M. Zimmerman,  D. Zuev,  B. Alam,  B. Albrecht,  
 E. Alguire,  S. A. Baeppler,  D. Barton,  Z. Benda,  Y. A. Bernard,  
 E. J. Berquist,  K. B. Bravaya,  H. Burton,  K. Carter-Fenk,  D. Casanova,  
 Chun-Min Chang,  Yunqing Chen,  A. Chien,  K. D. Closser,  M. P. Coons,  
 S. Coriani,  S. Dasgupta,  A. L. Dempwolff,  M. Diedenhofen,  Hainam Do,  
 R. G. Edgar,  Po-Tung Fang,  S. Faraji,  S. Fatehi,  Qingguo Feng,  
 J. Fosso-Tande,  J. Gayvert,  Qinghui Ge,  A. Ghysels,  G. Gidofalvi,  
 J. Gomes,  J. Gonthier,  A. Gunina,  D. Hait,  M. W. D. Hanson-Heine,  
 P. H. P. Harbach,  A. W. Hauser,  M. F. Herbst,  J. E. Herr,  
 E. G. Hohenstein,  Z. C. Holden,  Kerwin Hui,  B. C. Huynh,  T.-C. Jagau,  
 Hyunjun Ji,  B. Kaduk,  K. Khistyaev,  Jaehoon Kim,  P. Klunzinger,  K. Koh,  
 D. Kosenkov,  L. Koulias,  T. Kowalczyk,  C. M. Krauter,  A. Kunitsa,  
 Ka Un Lao,  A. Laurent,  K. V. Lawler,  Joonho Lee,  D. Lefrancois,  
 S. Lehtola,  D. S. Levine,  Yi-Pei Li,  You-Sheng Lin,  Fenglai Liu,  
 Kuan-Yu Liu,  E. Livshits,  M. Loipersberger,  A. Luenser,  P. Manohar,  
 E. Mansoor,  S. F. Manzer,  Shan-Ping Mao,  Yuezhi Mao,  N. Mardirossian,  
 A. V. Marenich,  T. Markovich,  L. A. Martinez-Martinez,  S. A. Maurer,  
 N. J. Mayhall,  S. C. McKenzie,  J.-M. Mewes,  P. Morgante,  A. F. Morrison,  
 J. W. Mullinax,  K. Nanda,  T. S. Nguyen-Beck,  R. Olivares-Amaya,  
 K. J. Oosterbaan,  J. A. Parkhill,  S. K. Paul,  F. Pavosevic,  Zheng Pei,  
 T. M. Perrine,  F. Plasser,  P. Pokhilko,  S. Prager,  A. Prociuk,  
 E. Ramos,  B. Rana,  D. R. Rehn,  F. Rob,  M. Scheurer,  M. Schneider,  
 N. Sergueev,  S. M. Sharada,  S. Sharma,  D. W. Small,  T. Stauch,  
 C. J. Stein,  T. Stein,  Yu-Chuan Su,  S. P. Veccham,  Zhen Tao,  
 A. J. W. Thom,  A. Tkatchenko,  T. Tsuchimochi,  N. M. Tubman,  L. Vogt,  
 M. L. Vidal,  O. Vydrov,  M. A. Watson,  J. Wenzel,  M. de Wergifosse,  
 T. A. Wesolowski,  A. White,  J. Witte,  A. Yamada,  Jun Yang,  K. Yao,  
 S. Yeganeh,  S. R. Yost,  Zhi-Qiang You,  A. Zech,  Igor Ying Zhang,  
 Xing Zhang,  Yan Zhao,  Ying Zhu,  B. R. Brooks,  G. K. L. Chan,  
 C. J. Cramer,  M. S. Gordon,  W. J. Hehre,  A. Klamt,  M. W. Schmidt,  
 C. D. Sherrill,  D. G. Truhlar,  A. Aspuru-Guzik,  R. Baer,  A. T. Bell,  
 N. A. Besley,  Jeng-Da Chai,  A. E. DePrince, III,  R. A. DiStasio Jr.,  
 A. Dreuw,  B. D. Dunietz,  T. R. Furlani,  Chao-Ping Hsu,  Yousung Jung,  
 Jing Kong,  D. S. Lambrecht,  WanZhen Liang,  C. Ochsenfeld,  
 V. A. Rassolov,  L. V. Slipchenko,  J. E. Subotnik,  T. Van Voorhis,  
 J. M. Herbert,  A. I. Krylov,  P. M. W. Gill,  M. Head-Gordon

 Contributors to earlier versions of Q-Chem not listed above: 
 R. D. Adamson,  B. Austin,  J. Baker,  G. J. O. Beran,  K. Brandhorst,  
 S. T. Brown,  E. F. C. Byrd,  A. K. Chakraborty,  C.-L. Cheng,  
 Siu Hung Chien,  D. M. Chipman,  D. L. Crittenden,  H. Dachsel,  
 R. J. Doerksen,  A. D. Dutoi,  L. Fusti-Molnar,  W. A. Goddard III,  
 A. Golubeva-Zadorozhnaya,  S. R. Gwaltney,  G. Hawkins,  A. Heyden,  
 S. Hirata,  G. Kedziora,  F. J. Keil,  C. Kelley,  Jihan Kim,  R. A. King,  
 R. Z. Khaliullin,  P. P. Korambath,  W. Kurlancheek,  A. M. Lee,  M. S. Lee,  
 S. V. Levchenko,  Ching Yeh Lin,  D. Liotard,  R. C. Lochan,  I. Lotan,  
 P. E. Maslen,  N. Nair,  D. P. O'Neill,  D. Neuhauser,  E. Neuscamman,  
 C. M. Oana,  R. Olson,  B. Peters,  R. Peverati,  P. A. Pieniazek,  
 Y. M. Rhee,  J. Ritchie,  M. A. Rohrdanz,  E. Rosta,  N. J. Russ,  
 H. F. Schaefer III,  N. E. Schultz,  N. Shenvi,  A. C. Simmonett,  A. Sodt,  
 D. Stuck,  K. S. Thanthiriwatte,  V. Vanovschi,  Tao Wang,  A. Warshel,  
 C. F. Williams,  Q. Wu,  X. Xu,  W. Zhang

 Please cite Q-Chem as follows:
 Y. Shao et al., Mol. Phys. 113, 184-215 (2015)
 DOI: 10.1080/00268976.2014.952696

 Q-Chem 5.3.0 for Intel X86 EM64T Linux

 Parts of Q-Chem use Armadillo 9.800.1 (Horizon Scraper).
 http://arma.sourceforge.net/

 Q-Chem begins on Mon Jul 13 15:50:43 2020  

Host: centos77-c5
0

     Scratch files written to /tmp/29025.centos77-h1/qchem59281//
Processing $rem in /opt/qchem-5.3.0-intel2020u1//config/preferences:
Processing $rem in /home/shihchengli/.qchemrc:

Checking the input file for inconsistencies... 	...done.

--------------------------------------------------------------
User input:
--------------------------------------------------------------
$rem
   JOBTYPE  sp
   EXCHANGE   omegaB97X-D
   BASIS   6-311+G(2df,2pd)
   UNRESTRICTED   True
   max_scf_cycles   250
   geom_opt_max_cycles   1500
   basis2 6-31G*
   scf_algorithm rca_diis
   SYM_IGNORE  TRUE
   print_input   true
   geom_opt_dmax   80
   pop_mulliken false
   XC_GRID 000075000302
$end

$molecule
0 3
N       0.6862917167     1.2198540788     2.4753992575
O       0.3960569484     2.1707687994     1.8423067300
O       1.5950257103     0.9863568309     3.2031921351
N       -0.0030542840     -1.1545916824     3.1975441785
O       -0.4323538498     -1.3275539030     4.1028489767
O       -0.2969751115     0.2001549862     2.2790086122
$end
--------------------------------------------------------------
 ----------------------------------------------------------------
             Standard Nuclear Orientation (Angstroms)
    I     Atom           X                Y                Z
 ----------------------------------------------------------------
    1      N       0.6862917167     1.2198540788     2.4753992575
    2      O       0.3960569484     2.1707687994     1.8423067300
    3      O       1.5950257103     0.9863568309     3.2031921351
    4      N      -0.0030542840    -1.1545916824     3.1975441785
    5      O      -0.4323538498    -1.3275539030     4.1028489767
    6      O      -0.2969751115     0.2001549862     2.2790086122
 ----------------------------------------------------------------
 Nuclear Repulsion Energy =         235.66433447 hartrees
 There are       24 alpha and       22 beta electrons
 Requested basis set is 6-311+G(2df,2pd)
 There are 48 shells and 204 basis functions

 Total QAlloc Memory Limit   2000 MB
 Mega-Array Size       188 MB
 MEM_STATIC part       192 MB

                       Distance Matrix (Angstroms)
             N (  1)   O (  2)   O (  3)   N (  4)   O (  5)
   O (  2)  1.178678
   O (  3)  1.187435  2.166187
   N (  4)  2.575788  3.613029  2.671620
   O (  5)  3.223236  4.246714  3.205282  1.016755
   O (  6)  1.430094  2.134085  2.247642  1.662960  2.382985
 
 A cutoff of  1.0D-09 yielded   1028 shell pairs
 There are     19163 function pairs (     25155 Cartesian)
 Smallest overlap matrix eigenvalue = 5.56E-04

 Scale SEOQF with 1.000000e-01/1.000000e-01/1.000000e-01

 Standard Electronic Orientation quadrupole field applied
 Nucleus-field energy     =    -0.0000000362 hartrees
 Requested basis set is 6-31G(d)
 There are 24 shells and 84 basis functions
 A cutoff of  1.0D-09 yielded    268 shell pairs
 There are      3534 function pairs (      4062 Cartesian)
 Smallest overlap matrix eigenvalue = 4.78E-03
 Guess from superposition of atomic densities
 Warning:  Energy on first SCF cycle will be non-variational
 SAD guess density has 46.000000 electrons
 Long-range K will be added via erf
 Coulomb attenuation parameter = 0.2 bohr**(-1)
 An unrestricted hybrid HF-DFT SCF calculation will be
 performed using Relaxed Constraint Minimization + Pulay DIIS
 Exchange:     0.2220 Hartree-Fock + 1.0000 wB97X-D + LR-HF
 Correlation:  1.0000 wB97X-D
 Using Euler-Maclaurin-Lebedev (75,302) quadrature formula
 Dispersion:   Grimme D
 SCF converges when DIIS error is below 1.0E-04
 using 6 threads for integral computing
 -------------------------------------------------------
 OpenMP Integral computing Module                
 Release: version 1.0, May 2013, Q-Chem Inc. Pittsburgh 
 -------------------------------------------------------
 using 6 threads for integral computing
 -------------------------------------------------------
 OpenMP Integral computing Module                
 Release: version 1.0, May 2013, Q-Chem Inc. Pittsburgh 
 -------------------------------------------------------
 ---------------------------------------
  Cycle       Energy         DIIS Error
 ---------------------------------------
    1    -411.4756430670      1.00E-01
    2    -409.6174286319      1.88E-02
    3    -409.7146978895      3.69E-03
    4    -409.8500600703      3.60E-03
    5    -409.8539234556      4.86E-04 Done RCA. Switching to DIIS
    6    -409.8592965875      3.24E-04
    7    -409.8595918730      1.34E-04
    8    -409.8596658100      7.46E-05 Convergence criterion met
 ---------------------------------------
 <S^2> = 2.0102
 SCF time:  CPU 14.32 s  wall 2.40 s
 SCF   energy in the small basis set = -409.85966581
 Total energy in the small basis set = -409.85966581
 ----------------------------------------------------
  Cycle       Energy    
 ----------------------------------------------------
    1     -41.9373720298     -4.19E+01
 Long-range K will be added via erf
 Coulomb attenuation parameter = 0.2 bohr**(-1)
 An unrestricted hybrid HF-DFT SCF calculation will be
 performed using Relaxed Constraint Minimization + Pulay DIIS
 Exchange:     0.2220 Hartree-Fock + 1.0000 wB97X-D + LR-HF
 Correlation:  1.0000 wB97X-D
 Using Euler-Maclaurin-Lebedev (75,302) quadrature formula
 Dispersion:   Grimme D
 SCF converges when DIIS error is below 1.0E-05
 Basis2 calculation detected. Using small basis as guess for larger.
 SCFMinFind is unable to tell whether the solution found is close.
 Resetting ReadMinima to 0 and attempting to follow guess.
 SCFMinFind following SCF Guess.
 using 6 threads for integral computing
 -------------------------------------------------------
 OpenMP Integral computing Module                
 Release: version 1.0, May 2013, Q-Chem Inc. Pittsburgh 
 -------------------------------------------------------
 using 6 threads for integral computing
 -------------------------------------------------------
 OpenMP Integral computing Module                
 Release: version 1.0, May 2013, Q-Chem Inc. Pittsburgh 
 -------------------------------------------------------
 ---------------------------------------
  Cycle       Energy         DIIS Error
 ---------------------------------------
    1    -409.9635341649      8.00E-03
    2    -409.9808987566      3.84E-03
    3    -409.9990321802      9.28E-04 Done RCA. Switching to DIIS
    4    -410.0244713380      9.11E-04
    5    -410.0271887375      1.97E-04
    6    -410.0274640201      7.24E-05
    7    -410.0275876860      4.66E-05
    8    -410.0276291997      1.64E-05
    9    -410.0276455659      6.83E-06 Convergence criterion met
 ---------------------------------------
 <S^2> = 2.0114
 SCF time:  CPU 55.22 s  wall 9.23 s
 SCF   energy in the final basis set = -410.02764557
 Total energy in the final basis set = -410.02764557
 
 --------------------------------------------------------------
 
                    Orbital Energies (a.u.)
 --------------------------------------------------------------
 
 Alpha MOs
 -- Occupied --
-19.3949 -19.3933 -19.3451 -19.3383 -14.7636 -14.5908  -1.4944  -1.4374
 -1.2546  -1.1969  -0.8506  -0.7713  -0.7276  -0.7221  -0.7106  -0.6844
 -0.6744  -0.6461  -0.4962  -0.4887  -0.4591  -0.4520  -0.4289  -0.2783
 -- Virtual --
 -0.0145   0.0526   0.0783   0.1114   0.1277   0.1341   0.1388   0.1698
  0.1757   0.1863   0.2291   0.2453   0.2491   0.2688   0.2735   0.2937
  0.3083   0.3292   0.3452   0.3473   0.3534   0.3642   0.3705   0.3979
  0.4118   0.4423   0.4480   0.4641   0.5374   0.6149   0.7497   0.7728
  0.8209   0.8301   0.8680   0.8911   0.9389   0.9505   0.9906   1.0151
  1.0302   1.0503   1.0640   1.0822   1.0895   1.0997   1.1238   1.1409
  1.1527   1.1674   1.1735   1.1855   1.2350   1.2491   1.2937   1.3335
  1.4531   1.4645   1.5146   1.5549   1.5744   1.5909   1.6137   1.6467
  1.6722   1.7212   1.7267   1.7950   1.8354   1.9136   1.9382   1.9665
  2.0729   2.1637   2.2488   2.2924   2.3471   2.3853   2.4906   2.5428
  2.5646   2.6546   2.7037   2.8228   3.4995   3.5295   3.5972   3.6324
  3.6428   3.6645   3.6687   3.7106   3.7304   3.7596   3.7936   3.8592
  4.0287   4.0348   4.0584   4.2605   4.2731   4.4037   4.4173   4.4493
  4.4795   4.5063   4.5453   4.6415   4.6632   4.7231   4.7402   4.7682
  4.8778   5.0043   5.0091   5.0321   5.0349   5.0497   5.0533   5.0789
  5.0882   5.1094   5.1181   5.1330   5.1553   5.1813   5.2114   5.2173
  5.2354   5.3064   5.3303   5.3979   5.4112   5.4494   5.4973   5.5602
  5.5898   5.6825   5.7072   5.7794   5.8500   5.8676   6.0192   6.1901
  6.3509   6.5524   6.6857   6.7270   6.7474   6.7719   6.7949   6.8337
  6.8753   6.8867   6.9416   7.0032   7.0445   7.1115   7.1221   7.1713
  7.2114   7.2881   7.3172   7.3574   7.5329   7.5393   7.5712   7.6290
  7.7037   7.8128   7.8669   7.9124   8.2059   8.3176  36.1415  36.2784
 50.0060  50.2533  50.2722  50.5374
 
 Beta MOs
 -- Occupied --
-19.3805 -19.3768 -19.3428 -19.3388 -14.7631 -14.5733  -1.4654  -1.4322
 -1.2522  -1.1556  -0.8109  -0.7365  -0.7109  -0.7058  -0.6699  -0.6568
 -0.6370  -0.5946  -0.4693  -0.4617  -0.4580  -0.4419
 -- Virtual --
 -0.1246  -0.0120   0.0411   0.0892   0.0978   0.1224   0.1393   0.1449
  0.1487   0.1748   0.1826   0.1933   0.2312   0.2511   0.2540   0.2711
  0.2777   0.2973   0.3191   0.3321   0.3464   0.3503   0.3559   0.3667
  0.3734   0.4030   0.4177   0.4450   0.4510   0.4700   0.5442   0.6300
  0.7611   0.7800   0.8380   0.8521   0.8777   0.8997   0.9422   0.9594
  1.0047   1.0235   1.0373   1.0693   1.0760   1.0884   1.0988   1.1125
  1.1301   1.1480   1.1632   1.1766   1.1846   1.1986   1.2492   1.2619
  1.3181   1.3497   1.4666   1.4792   1.5201   1.5592   1.5774   1.5989
  1.6325   1.6690   1.6843   1.7343   1.7513   1.7992   1.8436   1.9249
  1.9431   1.9824   2.0930   2.1691   2.2680   2.3042   2.3627   2.3979
  2.5052   2.5459   2.5710   2.6680   2.7141   2.8275   3.5262   3.5637
  3.6082   3.6463   3.6671   3.6765   3.6888   3.7188   3.7406   3.7787
  3.8541   3.8784   4.0314   4.0412   4.0698   4.2903   4.3061   4.4221
  4.4420   4.4783   4.4859   4.5131   4.5616   4.6674   4.6710   4.7374
  4.7466   4.8182   4.9304   5.0226   5.0299   5.0500   5.0520   5.0548
  5.0703   5.0908   5.0946   5.1171   5.1370   5.1442   5.1820   5.2012
  5.2368   5.2524   5.2679   5.3330   5.3530   5.4134   5.4184   5.4672
  5.5095   5.5658   5.6115   5.6931   5.7430   5.7991   5.8594   5.8815
  6.0392   6.2276   6.3671   6.5542   6.6994   6.7735   6.7808   6.8004
  6.8032   6.8415   6.8883   6.9220   6.9435   7.0201   7.0724   7.1282
  7.1500   7.1739   7.2302   7.2997   7.3389   7.3744   7.5575   7.5761
  7.5820   7.6542   7.7276   7.8249   7.8912   7.9209   8.2316   8.3206
 36.1421  36.2980  50.0235  50.2541  50.2734  50.5499
 --------------------------------------------------------------
 
 -----------------------------------------------------------------
                    Cartesian Multipole Moments
 -----------------------------------------------------------------
    Charge (ESU x 10^10)
                -0.0000
    Dipole Moment (Debye)
         X      -0.4492      Y      -1.2041      Z       0.5146
       Tot       1.3844
    Quadrupole Moments (Debye-Ang)
        XX     -32.9894     XY      -1.0513     YY     -32.5317
        XZ      -2.5739     YZ      -2.6349     ZZ     -29.2634
    Octopole Moments (Debye-Ang^2)
       XXX     -34.6668    XXY     -13.7003    XYY     -11.9000
       YYY     -44.2229    XXZ     -95.4760    XYZ      -4.3553
       YYZ     -87.8019    XZZ     -20.3142    YZZ     -17.5123
       ZZZ    -261.3670
    Hexadecapole Moments (Debye-Ang^3)
      XXXX    -139.1914   XXXY     -63.1753   XXYY     -83.0638
      XYYY     -65.4188   YYYY    -356.7989   XXXZ     -94.8341
      XXYZ     -17.6818   XYYZ     -30.6295   YYYZ     -50.5184
      XXZZ    -318.6485   XYZZ     -36.9073   YYZZ    -318.6142
      XZZZ    -115.0923   YZZZ     -42.4608   ZZZZ   -1633.7425
 -----------------------------------------------------------------
Archival summary:
1\1\centos77-c5\SP\ProcedureUnspecified\BasisUnspecified\42(3)\shihchen\MonJul1315:50:572020MonJul1315:50:572020\0\\#,ProcedureUnspecified,BasisUnspecified,\\0,3\N\O,1,1.17868\O,1,1.18743,2,132.555\O,1,1.43009,2,109.401,3,179.692,0\N,4,1.66296,1,112.551,2,-177.185,0\O,5,1.01676,4,123.763,1,95.6949,0\\\@

 Total job time:  14.00s(wall), 73.92s(cpu) 
 Mon Jul 13 15:50:57 2020

        *************************************************************
        *                                                           *
        *  Thank you very much for using Q-Chem.  Have a nice day.  *
        *                                                           *
        *************************************************************


