                  Welcome to Q-Chem
     A Quantum Leap Into The Future Of Chemistry


 Q-Chem 5.3 (devel), Q-Chem, Inc., Pleasanton, CA (2020)

 Yihan Shao,  Zhengting Gan,  E. Epifanovsky,  A. T. B. Gilbert,  M. Wormit,  
 J. Kussmann,  A. W. Lange,  A. Behn,  Jia Deng,  Xintian Feng,  D. Ghosh,  
 M. Goldey,  P. R. Horn,  L. D. Jacobson,  I. Kaliman,  T. Kus,  A. Landau,  
 Jie Liu,  E. I. Proynov,  R. M. Richard,  R. P. Steele,  E. J. Sundstrom,  
 H. L. Woodcock III,  P. M. Zimmerman,  D. Zuev,  B. Alam,  B. Albrecht,  
 E. Alguire,  S. A. Baeppler,  D. Barton,  Z. Benda,  Y. A. Bernard,  
 E. J. Berquist,  K. B. Bravaya,  H. Burton,  K. Carter-Fenk,  D. Casanova,  
 Chun-Min Chang,  Yunqing Chen,  A. Chien,  K. D. Closser,  M. P. Coons,  
 S. Coriani,  S. Dasgupta,  A. L. Dempwolff,  M. Diedenhofen,  Hainam Do,  
 R. G. Edgar,  Po-Tung Fang,  S. Faraji,  S. Fatehi,  Qingguo Feng,  
 J. Fosso-Tande,  J. Gayvert,  Qinghui Ge,  A. Ghysels,  G. Gidofalvi,  
 J. Gomes,  J. Gonthier,  A. Gunina,  D. Hait,  M. W. D. Hanson-Heine,  
 P. H. P. Harbach,  A. W. Hauser,  M. F. Herbst,  J. E. Herr,  
 E. G. Hohenstein,  Z. C. Holden,  Kerwin Hui,  B. C. Huynh,  T.-C. Jagau,  
 Hyunjun Ji,  B. Kaduk,  K. Khistyaev,  Jaehoon Kim,  P. Klunzinger,  K. Koh,  
 D. Kosenkov,  L. Koulias,  T. Kowalczyk,  C. M. Krauter,  A. Kunitsa,  
 Ka Un Lao,  A. Laurent,  K. V. Lawler,  Joonho Lee,  D. Lefrancois,  
 S. Lehtola,  D. S. Levine,  Yi-Pei Li,  You-Sheng Lin,  Fenglai Liu,  
 Kuan-Yu Liu,  E. Livshits,  M. Loipersberger,  A. Luenser,  P. Manohar,  
 E. Mansoor,  S. F. Manzer,  Shan-Ping Mao,  Yuezhi Mao,  N. Mardirossian,  
 A. V. Marenich,  T. Markovich,  L. A. Martinez-Martinez,  S. A. Maurer,  
 N. J. Mayhall,  S. C. McKenzie,  J.-M. Mewes,  P. Morgante,  A. F. Morrison,  
 J. W. Mullinax,  K. Nanda,  T. S. Nguyen-Beck,  R. Olivares-Amaya,  
 K. J. Oosterbaan,  J. A. Parkhill,  S. K. Paul,  F. Pavosevic,  Zheng Pei,  
 T. M. Perrine,  F. Plasser,  P. Pokhilko,  S. Prager,  A. Prociuk,  
 E. Ramos,  B. Rana,  D. R. Rehn,  F. Rob,  M. Scheurer,  M. Schneider,  
 N. Sergueev,  S. M. Sharada,  S. Sharma,  D. W. Small,  T. Stauch,  
 C. J. Stein,  T. Stein,  Yu-Chuan Su,  S. P. Veccham,  Zhen Tao,  
 A. J. W. Thom,  A. Tkatchenko,  T. Tsuchimochi,  N. M. Tubman,  L. Vogt,  
 M. L. Vidal,  O. Vydrov,  M. A. Watson,  J. Wenzel,  M. de Wergifosse,  
 T. A. Wesolowski,  A. White,  J. Witte,  A. Yamada,  Jun Yang,  K. Yao,  
 S. Yeganeh,  S. R. Yost,  Zhi-Qiang You,  A. Zech,  Igor Ying Zhang,  
 Xing Zhang,  Yan Zhao,  Ying Zhu,  B. R. Brooks,  G. K. L. Chan,  
 C. J. Cramer,  M. S. Gordon,  W. J. Hehre,  A. Klamt,  M. W. Schmidt,  
 C. D. Sherrill,  D. G. Truhlar,  A. Aspuru-Guzik,  R. Baer,  A. T. Bell,  
 N. A. Besley,  Jeng-Da Chai,  A. E. DePrince, III,  R. A. DiStasio Jr.,  
 A. Dreuw,  B. D. Dunietz,  T. R. Furlani,  Chao-Ping Hsu,  Yousung Jung,  
 Jing Kong,  D. S. Lambrecht,  WanZhen Liang,  C. Ochsenfeld,  
 V. A. Rassolov,  L. V. Slipchenko,  J. E. Subotnik,  T. Van Voorhis,  
 J. M. Herbert,  A. I. Krylov,  P. M. W. Gill,  M. Head-Gordon

 Contributors to earlier versions of Q-Chem not listed above: 
 R. D. Adamson,  B. Austin,  J. Baker,  G. J. O. Beran,  K. Brandhorst,  
 S. T. Brown,  E. F. C. Byrd,  A. K. Chakraborty,  C.-L. Cheng,  
 Siu Hung Chien,  D. M. Chipman,  D. L. Crittenden,  H. Dachsel,  
 R. J. Doerksen,  A. D. Dutoi,  L. Fusti-Molnar,  W. A. Goddard III,  
 A. Golubeva-Zadorozhnaya,  S. R. Gwaltney,  G. Hawkins,  A. Heyden,  
 S. Hirata,  G. Kedziora,  F. J. Keil,  C. Kelley,  Jihan Kim,  R. A. King,  
 R. Z. Khaliullin,  P. P. Korambath,  W. Kurlancheek,  A. M. Lee,  M. S. Lee,  
 S. V. Levchenko,  Ching Yeh Lin,  D. Liotard,  R. C. Lochan,  I. Lotan,  
 P. E. Maslen,  N. Nair,  D. P. O'Neill,  D. Neuhauser,  E. Neuscamman,  
 C. M. Oana,  R. Olson,  B. Peters,  R. Peverati,  P. A. Pieniazek,  
 Y. M. Rhee,  J. Ritchie,  M. A. Rohrdanz,  E. Rosta,  N. J. Russ,  
 H. F. Schaefer III,  N. E. Schultz,  N. Shenvi,  A. C. Simmonett,  A. Sodt,  
 D. Stuck,  K. S. Thanthiriwatte,  V. Vanovschi,  Tao Wang,  A. Warshel,  
 C. F. Williams,  Q. Wu,  X. Xu,  W. Zhang

 Please cite Q-Chem as follows:
 Y. Shao et al., Mol. Phys. 113, 184-215 (2015)
 DOI: 10.1080/00268976.2014.952696

 Q-Chem 5.3.0 for Intel X86 EM64T Linux

 Parts of Q-Chem use Armadillo 9.800.1 (Horizon Scraper).
 http://arma.sourceforge.net/

 Q-Chem begins on Mon Jul 13 15:31:15 2020  

Host: centos77-c5
0

     Scratch files written to /tmp/29025.centos77-h1/qchem105527//
Processing $rem in /opt/qchem-5.3.0-intel2020u1//config/preferences:
Processing $rem in /home/shihchengli/.qchemrc:

Checking the input file for inconsistencies... 	...done.

--------------------------------------------------------------
User input:
--------------------------------------------------------------
$rem
   JOBTYPE  sp
   EXCHANGE   omegaB97X-D
   BASIS   6-311+G(2df,2pd)
   UNRESTRICTED   True
   max_scf_cycles   250
   geom_opt_max_cycles   1500
   basis2 6-31G*
   scf_algorithm rca_diis
   SYM_IGNORE  TRUE
   print_input   true
   geom_opt_dmax   80
   pop_mulliken false
   XC_GRID 000075000302
$end

$molecule
0 3
N       0.6969773814     1.2675917582     2.4469025743
O       0.5002659629     2.2217133572     1.7786015080
O       1.5443392189     1.0091042912     3.2259404766
N       -0.0838805241     -1.0500879520     3.1987560613
O       -0.3765135495     -1.5451274627     4.2186107720
O       -0.3361973595     0.1917951181     2.2314884977
$end
--------------------------------------------------------------
 ----------------------------------------------------------------
             Standard Nuclear Orientation (Angstroms)
    I     Atom           X                Y                Z
 ----------------------------------------------------------------
    1      N       0.6969773814     1.2675917582     2.4469025743
    2      O       0.5002659629     2.2217133572     1.7786015080
    3      O       1.5443392189     1.0091042912     3.2259404766
    4      N      -0.0838805241    -1.0500879520     3.1987560613
    5      O      -0.3765135495    -1.5451274627     4.2186107720
    6      O      -0.3361973595     0.1917951181     2.2314884977
 ----------------------------------------------------------------
 Nuclear Repulsion Energy =         227.89231523 hartrees
 There are       24 alpha and       22 beta electrons
 Requested basis set is 6-311+G(2df,2pd)
 There are 48 shells and 204 basis functions

 Total QAlloc Memory Limit   2000 MB
 Mega-Array Size       188 MB
 MEM_STATIC part       192 MB

                       Distance Matrix (Angstroms)
             N (  1)   O (  2)   O (  3)   N (  4)   O (  5)
   O (  2)  1.181385
   O (  3)  1.179719  2.157614
   N (  4)  2.558645  3.614243  2.625283
   O (  5)  3.493239  4.572907  3.346516  1.170812
   O (  6)  1.507047  2.241728  2.278892  1.594222  2.639542
 
 A cutoff of  1.0D-09 yielded   1017 shell pairs
 There are     18947 function pairs (     24845 Cartesian)
 Smallest overlap matrix eigenvalue = 6.45E-04

 Scale SEOQF with 1.000000e-01/1.000000e-01/1.000000e-01

 Standard Electronic Orientation quadrupole field applied
 Nucleus-field energy     =    -0.0000000362 hartrees
 Requested basis set is 6-31G(d)
 There are 24 shells and 84 basis functions
 A cutoff of  1.0D-09 yielded    267 shell pairs
 There are      3530 function pairs (      4058 Cartesian)
 Smallest overlap matrix eigenvalue = 5.06E-03
 Guess from superposition of atomic densities
 Warning:  Energy on first SCF cycle will be non-variational
 SAD guess density has 46.000000 electrons
 Long-range K will be added via erf
 Coulomb attenuation parameter = 0.2 bohr**(-1)
 An unrestricted hybrid HF-DFT SCF calculation will be
 performed using Relaxed Constraint Minimization + Pulay DIIS
 Exchange:     0.2220 Hartree-Fock + 1.0000 wB97X-D + LR-HF
 Correlation:  1.0000 wB97X-D
 Using Euler-Maclaurin-Lebedev (75,302) quadrature formula
 Dispersion:   Grimme D
 SCF converges when DIIS error is below 1.0E-04
 using 6 threads for integral computing
 -------------------------------------------------------
 OpenMP Integral computing Module                
 Release: version 1.0, May 2013, Q-Chem Inc. Pittsburgh 
 -------------------------------------------------------
 using 6 threads for integral computing
 -------------------------------------------------------
 OpenMP Integral computing Module                
 Release: version 1.0, May 2013, Q-Chem Inc. Pittsburgh 
 -------------------------------------------------------
 ---------------------------------------
  Cycle       Energy         DIIS Error
 ---------------------------------------
    1    -410.9744489283      8.74E-02
    2    -409.6483447146      1.94E-02
    3    -409.7514443750      4.36E-03
    4    -409.8971851554      4.76E-03
    5    -409.9035881102      7.44E-04 Done RCA. Switching to DIIS
    6    -409.9121737012      7.43E-04
    7    -409.9126773756      1.23E-04
    8    -409.9127293192      8.13E-05 Convergence criterion met
 ---------------------------------------
 <S^2> = 2.0137
 SCF time:  CPU 14.09 s  wall 2.36 s
 SCF   energy in the small basis set = -409.91272932
 Total energy in the small basis set = -409.91272932
 ----------------------------------------------------
  Cycle       Energy    
 ----------------------------------------------------
    1     -41.7363611047     -4.17E+01
 Long-range K will be added via erf
 Coulomb attenuation parameter = 0.2 bohr**(-1)
 An unrestricted hybrid HF-DFT SCF calculation will be
 performed using Relaxed Constraint Minimization + Pulay DIIS
 Exchange:     0.2220 Hartree-Fock + 1.0000 wB97X-D + LR-HF
 Correlation:  1.0000 wB97X-D
 Using Euler-Maclaurin-Lebedev (75,302) quadrature formula
 Dispersion:   Grimme D
 SCF converges when DIIS error is below 1.0E-05
 Basis2 calculation detected. Using small basis as guess for larger.
 SCFMinFind is unable to tell whether the solution found is close.
 Resetting ReadMinima to 0 and attempting to follow guess.
 SCFMinFind following SCF Guess.
 using 6 threads for integral computing
 -------------------------------------------------------
 OpenMP Integral computing Module                
 Release: version 1.0, May 2013, Q-Chem Inc. Pittsburgh 
 -------------------------------------------------------
 using 6 threads for integral computing
 -------------------------------------------------------
 OpenMP Integral computing Module                
 Release: version 1.0, May 2013, Q-Chem Inc. Pittsburgh 
 -------------------------------------------------------
 ---------------------------------------
  Cycle       Energy         DIIS Error
 ---------------------------------------
    1    -410.0063021122      8.00E-03
    2    -410.0179840477      3.95E-03
    3    -410.0377932434      9.59E-04 Done RCA. Switching to DIIS
    4    -410.0645759787      1.02E-03
    5    -410.0679410773      2.03E-04
    6    -410.0681544052      4.17E-05
    7    -410.0682114991      2.50E-05
    8    -410.0682240893      1.38E-05
    9    -410.0682320578      6.02E-06 Convergence criterion met
 ---------------------------------------
 <S^2> = 2.0154
 SCF time:  CPU 54.17 s  wall 9.06 s
 SCF   energy in the final basis set = -410.06823206
 Total energy in the final basis set = -410.06823206
 
 --------------------------------------------------------------
 
                    Orbital Energies (a.u.)
 --------------------------------------------------------------
 
 Alpha MOs
 -- Occupied --
-19.4004 -19.3960 -19.3564 -19.3511 -14.7689 -14.6279  -1.4390  -1.3627
 -1.2629  -1.1918  -0.8744  -0.7727  -0.7197  -0.7131  -0.6819  -0.6580
 -0.6344  -0.6323  -0.4928  -0.4893  -0.4681  -0.4551  -0.4130  -0.3407
 -- Virtual --
 -0.0305  -0.0071   0.0516   0.0964   0.1169   0.1361   0.1403   0.1683
  0.1789   0.1912   0.2321   0.2449   0.2570   0.2590   0.2714   0.2978
  0.3192   0.3287   0.3335   0.3448   0.3455   0.3590   0.3704   0.4042
  0.4172   0.4351   0.4444   0.4644   0.4887   0.5301   0.7415   0.7636
  0.7961   0.8427   0.8769   0.8924   0.9181   0.9548   0.9800   1.0114
  1.0248   1.0315   1.0648   1.0729   1.0862   1.1043   1.1091   1.1169
  1.1358   1.1473   1.1581   1.1812   1.2156   1.2217   1.2987   1.3162
  1.4426   1.4822   1.5211   1.5312   1.5392   1.5722   1.5815   1.6138
  1.6381   1.6841   1.7006   1.7749   1.8046   1.8558   1.9104   1.9276
  2.0753   2.1451   2.1655   2.2066   2.3574   2.3707   2.5016   2.5110
  2.5577   2.5827   2.7031   2.8060   3.4844   3.5139   3.5515   3.5873
  3.6036   3.6601   3.6666   3.7123   3.7454   3.7693   3.7948   3.8851
  3.9153   3.9642   4.0259   4.0584   4.1157   4.4197   4.4482   4.4800
  4.4924   4.5408   4.6557   4.6650   4.6936   4.7034   4.7257   4.7602
  4.7931   4.8525   5.0084   5.0207   5.0303   5.0344   5.0406   5.0434
  5.0594   5.0706   5.0832   5.1232   5.1286   5.1438   5.1498   5.1744
  5.2117   5.2755   5.3367   5.3500   5.3903   5.4365   5.4381   5.4829
  5.5587   5.5907   5.6513   5.6940   5.7328   5.7695   5.9551   5.9874
  6.2685   6.5041   6.5475   6.6635   6.7269   6.7320   6.7608   6.7875
  6.8158   6.8781   6.8863   6.9326   6.9440   7.0151   7.0777   7.1051
  7.1617   7.1655   7.1832   7.2516   7.2850   7.3427   7.4428   7.5598
  7.6478   7.7188   7.7590   7.8884   7.9660   8.2960  35.9028  36.1259
 49.9820  50.1772  50.2384  50.2602
 
 Beta MOs
 -- Occupied --
-19.3873 -19.3795 -19.3551 -19.3514 -14.7680 -14.6069  -1.4358  -1.3239
 -1.2612  -1.1557  -0.8290  -0.7436  -0.7107  -0.7036  -0.6739  -0.6088
 -0.5843  -0.5576  -0.4733  -0.4684  -0.4674  -0.4508
 -- Virtual --
 -0.1024  -0.0227  -0.0178   0.0359   0.0794   0.1065   0.1219   0.1399
  0.1441   0.1708   0.1829   0.1946   0.2337   0.2477   0.2588   0.2628
  0.2746   0.3013   0.3249   0.3305   0.3365   0.3460   0.3471   0.3615
  0.3735   0.4079   0.4256   0.4374   0.4480   0.4700   0.5185   0.5377
  0.7509   0.7761   0.8124   0.8598   0.8887   0.9002   0.9234   0.9652
  0.9936   1.0218   1.0325   1.0532   1.0743   1.0821   1.1046   1.1113
  1.1186   1.1264   1.1390   1.1572   1.1682   1.1922   1.2243   1.2291
  1.3132   1.3310   1.4523   1.4966   1.5261   1.5400   1.5557   1.5754
  1.5933   1.6325   1.6519   1.7068   1.7128   1.7798   1.8105   1.8675
  1.9158   1.9330   2.0928   2.1517   2.1826   2.2252   2.3679   2.3786
  2.5123   2.5273   2.5615   2.5950   2.7156   2.8115   3.5070   3.5607
  3.5896   3.6106   3.6162   3.6632   3.6783   3.7175   3.7508   3.8114
  3.8609   3.9088   3.9395   3.9742   4.0267   4.0866   4.1365   4.4241
  4.4552   4.4826   4.4958   4.5638   4.6696   4.7037   4.7345   4.7411
  4.7617   4.7991   4.8383   4.8866   5.0215   5.0318   5.0412   5.0436
  5.0621   5.0678   5.0703   5.0807   5.0971   5.1310   5.1502   5.1679
  5.1757   5.1907   5.2359   5.2972   5.3580   5.3707   5.3937   5.4413
  5.4530   5.4882   5.5789   5.6122   5.6713   5.7228   5.7397   5.7824
  5.9873   6.0015   6.2725   6.5161   6.5487   6.7082   6.7622   6.7851
  6.7901   6.7925   6.8227   6.8866   6.9141   6.9337   6.9748   7.0284
  7.0987   7.1149   7.1642   7.2031   7.2089   7.2611   7.3076   7.3476
  7.4726   7.5657   7.6760   7.7287   7.7697   7.8932   7.9999   8.2984
 35.9286  36.1271  49.9960  50.1922  50.2398  50.2603
 --------------------------------------------------------------
 
 -----------------------------------------------------------------
                    Cartesian Multipole Moments
 -----------------------------------------------------------------
    Charge (ESU x 10^10)
                -0.0000
    Dipole Moment (Debye)
         X      -0.1907      Y      -0.4802      Z       0.1038
       Tot       0.5270
    Quadrupole Moments (Debye-Ang)
        XX     -32.7643     XY      -0.9184     YY     -33.2823
        XZ      -1.8533     YZ       0.2182     ZZ     -32.2778
    Octopole Moments (Debye-Ang^2)
       XXX     -32.8490    XXY     -12.9251    XYY     -11.4725
       YYY     -39.3483    XXZ     -94.9401    XYZ      -3.7647
       YYZ     -91.9191    XZZ     -18.3874    YZZ      -6.1458
       ZZZ    -278.0718
    Hexadecapole Moments (Debye-Ang^3)
      XXXX    -134.8908   XXXY     -68.0413   XXYY     -86.7980
      XYYY     -71.4469   YYYY    -385.1278   XXXZ     -87.6511
      XXYZ     -11.6569   XYYZ     -28.4068   YYYZ     -22.3563
      XXZZ    -320.0893   XYZZ     -36.3699   YYZZ    -345.0825
      XZZZ    -108.4469   YZZZ      13.7527   ZZZZ   -1733.5975
 -----------------------------------------------------------------
Archival summary:
1\1\centos77-c5\SP\ProcedureUnspecified\BasisUnspecified\42(3)\shihchen\MonJul1315:31:292020MonJul1315:31:292020\0\\#,ProcedureUnspecified,BasisUnspecified,\\0,3\N\O,1,1.17972\O,1,1.18138,2,132.076\O,1,1.50705,2,115.493,3,179.264,0\N,4,1.59422,1,111.152,2,3.40405,0\O,5,1.17081,4,144.917,1,95.7149,0\\\@

 Total job time:  13.80s(wall), 72.35s(cpu) 
 Mon Jul 13 15:31:29 2020

        *************************************************************
        *                                                           *
        *  Thank you very much for using Q-Chem.  Have a nice day.  *
        *                                                           *
        *************************************************************


