                  Welcome to Q-Chem
     A Quantum Leap Into The Future Of Chemistry


 Q-Chem 5.3 (devel), Q-Chem, Inc., Pleasanton, CA (2020)

 Yihan Shao,  Zhengting Gan,  E. Epifanovsky,  A. T. B. Gilbert,  M. Wormit,  
 J. Kussmann,  A. W. Lange,  A. Behn,  Jia Deng,  Xintian Feng,  D. Ghosh,  
 M. Goldey,  P. R. Horn,  L. D. Jacobson,  I. Kaliman,  T. Kus,  A. Landau,  
 Jie Liu,  E. I. Proynov,  R. M. Richard,  R. P. Steele,  E. J. Sundstrom,  
 H. L. Woodcock III,  P. M. Zimmerman,  D. Zuev,  B. Alam,  B. Albrecht,  
 E. Alguire,  S. A. Baeppler,  D. Barton,  Z. Benda,  Y. A. Bernard,  
 E. J. Berquist,  K. B. Bravaya,  H. Burton,  K. Carter-Fenk,  D. Casanova,  
 Chun-Min Chang,  Yunqing Chen,  A. Chien,  K. D. Closser,  M. P. Coons,  
 S. Coriani,  S. Dasgupta,  A. L. Dempwolff,  M. Diedenhofen,  Hainam Do,  
 R. G. Edgar,  Po-Tung Fang,  S. Faraji,  S. Fatehi,  Qingguo Feng,  
 J. Fosso-Tande,  J. Gayvert,  Qinghui Ge,  A. Ghysels,  G. Gidofalvi,  
 J. Gomes,  J. Gonthier,  A. Gunina,  D. Hait,  M. W. D. Hanson-Heine,  
 P. H. P. Harbach,  A. W. Hauser,  M. F. Herbst,  J. E. Herr,  
 E. G. Hohenstein,  Z. C. Holden,  Kerwin Hui,  B. C. Huynh,  T.-C. Jagau,  
 Hyunjun Ji,  B. Kaduk,  K. Khistyaev,  Jaehoon Kim,  P. Klunzinger,  K. Koh,  
 D. Kosenkov,  L. Koulias,  T. Kowalczyk,  C. M. Krauter,  A. Kunitsa,  
 Ka Un Lao,  A. Laurent,  K. V. Lawler,  Joonho Lee,  D. Lefrancois,  
 S. Lehtola,  D. S. Levine,  Yi-Pei Li,  You-Sheng Lin,  Fenglai Liu,  
 Kuan-Yu Liu,  E. Livshits,  M. Loipersberger,  A. Luenser,  P. Manohar,  
 E. Mansoor,  S. F. Manzer,  Shan-Ping Mao,  Yuezhi Mao,  N. Mardirossian,  
 A. V. Marenich,  T. Markovich,  L. A. Martinez-Martinez,  S. A. Maurer,  
 N. J. Mayhall,  S. C. McKenzie,  J.-M. Mewes,  P. Morgante,  A. F. Morrison,  
 J. W. Mullinax,  K. Nanda,  T. S. Nguyen-Beck,  R. Olivares-Amaya,  
 K. J. Oosterbaan,  J. A. Parkhill,  S. K. Paul,  F. Pavosevic,  Zheng Pei,  
 T. M. Perrine,  F. Plasser,  P. Pokhilko,  S. Prager,  A. Prociuk,  
 E. Ramos,  B. Rana,  D. R. Rehn,  F. Rob,  M. Scheurer,  M. Schneider,  
 N. Sergueev,  S. M. Sharada,  S. Sharma,  D. W. Small,  T. Stauch,  
 C. J. Stein,  T. Stein,  Yu-Chuan Su,  S. P. Veccham,  Zhen Tao,  
 A. J. W. Thom,  A. Tkatchenko,  T. Tsuchimochi,  N. M. Tubman,  L. Vogt,  
 M. L. Vidal,  O. Vydrov,  M. A. Watson,  J. Wenzel,  M. de Wergifosse,  
 T. A. Wesolowski,  A. White,  J. Witte,  A. Yamada,  Jun Yang,  K. Yao,  
 S. Yeganeh,  S. R. Yost,  Zhi-Qiang You,  A. Zech,  Igor Ying Zhang,  
 Xing Zhang,  Yan Zhao,  Ying Zhu,  B. R. Brooks,  G. K. L. Chan,  
 C. J. Cramer,  M. S. Gordon,  W. J. Hehre,  A. Klamt,  M. W. Schmidt,  
 C. D. Sherrill,  D. G. Truhlar,  A. Aspuru-Guzik,  R. Baer,  A. T. Bell,  
 N. A. Besley,  Jeng-Da Chai,  A. E. DePrince, III,  R. A. DiStasio Jr.,  
 A. Dreuw,  B. D. Dunietz,  T. R. Furlani,  Chao-Ping Hsu,  Yousung Jung,  
 Jing Kong,  D. S. Lambrecht,  WanZhen Liang,  C. Ochsenfeld,  
 V. A. Rassolov,  L. V. Slipchenko,  J. E. Subotnik,  T. Van Voorhis,  
 J. M. Herbert,  A. I. Krylov,  P. M. W. Gill,  M. Head-Gordon

 Contributors to earlier versions of Q-Chem not listed above: 
 R. D. Adamson,  B. Austin,  J. Baker,  G. J. O. Beran,  K. Brandhorst,  
 S. T. Brown,  E. F. C. Byrd,  A. K. Chakraborty,  C.-L. Cheng,  
 Siu Hung Chien,  D. M. Chipman,  D. L. Crittenden,  H. Dachsel,  
 R. J. Doerksen,  A. D. Dutoi,  L. Fusti-Molnar,  W. A. Goddard III,  
 A. Golubeva-Zadorozhnaya,  S. R. Gwaltney,  G. Hawkins,  A. Heyden,  
 S. Hirata,  G. Kedziora,  F. J. Keil,  C. Kelley,  Jihan Kim,  R. A. King,  
 R. Z. Khaliullin,  P. P. Korambath,  W. Kurlancheek,  A. M. Lee,  M. S. Lee,  
 S. V. Levchenko,  Ching Yeh Lin,  D. Liotard,  R. C. Lochan,  I. Lotan,  
 P. E. Maslen,  N. Nair,  D. P. O'Neill,  D. Neuhauser,  E. Neuscamman,  
 C. M. Oana,  R. Olson,  B. Peters,  R. Peverati,  P. A. Pieniazek,  
 Y. M. Rhee,  J. Ritchie,  M. A. Rohrdanz,  E. Rosta,  N. J. Russ,  
 H. F. Schaefer III,  N. E. Schultz,  N. Shenvi,  A. C. Simmonett,  A. Sodt,  
 D. Stuck,  K. S. Thanthiriwatte,  V. Vanovschi,  Tao Wang,  A. Warshel,  
 C. F. Williams,  Q. Wu,  X. Xu,  W. Zhang

 Please cite Q-Chem as follows:
 Y. Shao et al., Mol. Phys. 113, 184-215 (2015)
 DOI: 10.1080/00268976.2014.952696

 Q-Chem 5.3.0 for Intel X86 EM64T Linux

 Parts of Q-Chem use Armadillo 9.800.1 (Horizon Scraper).
 http://arma.sourceforge.net/

 Q-Chem begins on Mon Jul 13 15:43:13 2020  

Host: centos77-c5
0

     Scratch files written to /tmp/29025.centos77-h1/qchem57765//
Processing $rem in /opt/qchem-5.3.0-intel2020u1//config/preferences:
Processing $rem in /home/shihchengli/.qchemrc:

Checking the input file for inconsistencies... 	...done.

--------------------------------------------------------------
User input:
--------------------------------------------------------------
$rem
   JOBTYPE  sp
   EXCHANGE   omegaB97X-D
   BASIS   6-311+G(2df,2pd)
   UNRESTRICTED   True
   max_scf_cycles   250
   geom_opt_max_cycles   1500
   basis2 6-31G*
   scf_algorithm rca_diis
   SYM_IGNORE  TRUE
   print_input   true
   geom_opt_dmax   80
   pop_mulliken false
   XC_GRID 000075000302
$end

$molecule
0 3
N       0.5773502394     1.0900656925     2.4642359328
O       0.4810044796     2.1472103510     1.9370481429
O       1.5555048128     1.0834902562     3.1029008988
N       0.0328881110     -1.1143674002     3.1411316140
O       -0.4861229422     -1.3374092841     4.1608436108
O       -0.2156335705     0.2259994945     2.2941396908
$end
--------------------------------------------------------------
 ----------------------------------------------------------------
             Standard Nuclear Orientation (Angstroms)
    I     Atom           X                Y                Z
 ----------------------------------------------------------------
    1      N       0.5773502394     1.0900656925     2.4642359328
    2      O       0.4810044796     2.1472103510     1.9370481429
    3      O       1.5555048128     1.0834902562     3.1029008988
    4      N       0.0328881110    -1.1143674002     3.1411316140
    5      O      -0.4861229422    -1.3374092841     4.1608436108
    6      O      -0.2156335705     0.2259994945     2.2941396908
 ----------------------------------------------------------------
 Nuclear Repulsion Energy =         241.08380477 hartrees
 There are       24 alpha and       22 beta electrons
 Requested basis set is 6-311+G(2df,2pd)
 There are 48 shells and 204 basis functions

 Total QAlloc Memory Limit   2000 MB
 Mega-Array Size       188 MB
 MEM_STATIC part       192 MB

                       Distance Matrix (Angstroms)
             N (  1)   O (  2)   O (  3)   N (  4)   O (  5)
   O (  2)  1.185228
   O (  3)  1.168213  1.909257
   N (  4)  2.369420  3.505498  2.674023
   O (  5)  3.146758  4.245371  3.338898  1.165733
   O (  6)  1.185060  2.074577  2.127514  1.604912  2.449897
 
 A cutoff of  1.0D-09 yielded   1037 shell pairs
 There are     19308 function pairs (     25327 Cartesian)
 Smallest overlap matrix eigenvalue = 4.70E-04

 Scale SEOQF with 1.000000e-01/1.000000e-01/1.000000e-01

 Standard Electronic Orientation quadrupole field applied
 Nucleus-field energy     =    -0.0000000363 hartrees
 Requested basis set is 6-31G(d)
 There are 24 shells and 84 basis functions
 A cutoff of  1.0D-09 yielded    268 shell pairs
 There are      3534 function pairs (      4062 Cartesian)
 Smallest overlap matrix eigenvalue = 4.10E-03
 Guess from superposition of atomic densities
 Warning:  Energy on first SCF cycle will be non-variational
 SAD guess density has 46.000000 electrons
 Long-range K will be added via erf
 Coulomb attenuation parameter = 0.2 bohr**(-1)
 An unrestricted hybrid HF-DFT SCF calculation will be
 performed using Relaxed Constraint Minimization + Pulay DIIS
 Exchange:     0.2220 Hartree-Fock + 1.0000 wB97X-D + LR-HF
 Correlation:  1.0000 wB97X-D
 Using Euler-Maclaurin-Lebedev (75,302) quadrature formula
 Dispersion:   Grimme D
 SCF converges when DIIS error is below 1.0E-04
 using 6 threads for integral computing
 -------------------------------------------------------
 OpenMP Integral computing Module                
 Release: version 1.0, May 2013, Q-Chem Inc. Pittsburgh 
 -------------------------------------------------------
 using 6 threads for integral computing
 -------------------------------------------------------
 OpenMP Integral computing Module                
 Release: version 1.0, May 2013, Q-Chem Inc. Pittsburgh 
 -------------------------------------------------------
 ---------------------------------------
  Cycle       Energy         DIIS Error
 ---------------------------------------
    1    -411.6376109122      1.01E-01
    2    -409.5420918079      2.10E-02
    3    -409.6515487911      6.63E-03
    4    -409.8226716993      7.29E-03
    5    -409.8363960036      1.06E-03
    6    -409.8530574856      1.30E-03
    7    -409.8535240775      2.60E-04 Done RCA. Switching to DIIS
    8    -409.8543066357      3.18E-04
    9    -409.8544429083      2.50E-04
   10    -409.8545346338      2.13E-04
   11    -409.8546625204      1.31E-04
   12    -409.8547430648      8.08E-05 Convergence criterion met
 ---------------------------------------
 <S^2> = 2.0119
 SCF time:  CPU 21.21 s  wall 3.55 s
 SCF   energy in the small basis set = -409.85474306
 Total energy in the small basis set = -409.85474306
 ----------------------------------------------------
  Cycle       Energy    
 ----------------------------------------------------
    1     -41.9505668961     -4.20E+01
 Long-range K will be added via erf
 Coulomb attenuation parameter = 0.2 bohr**(-1)
 An unrestricted hybrid HF-DFT SCF calculation will be
 performed using Relaxed Constraint Minimization + Pulay DIIS
 Exchange:     0.2220 Hartree-Fock + 1.0000 wB97X-D + LR-HF
 Correlation:  1.0000 wB97X-D
 Using Euler-Maclaurin-Lebedev (75,302) quadrature formula
 Dispersion:   Grimme D
 SCF converges when DIIS error is below 1.0E-05
 Basis2 calculation detected. Using small basis as guess for larger.
 SCFMinFind is unable to tell whether the solution found is close.
 Resetting ReadMinima to 0 and attempting to follow guess.
 SCFMinFind following SCF Guess.
 using 6 threads for integral computing
 -------------------------------------------------------
 OpenMP Integral computing Module                
 Release: version 1.0, May 2013, Q-Chem Inc. Pittsburgh 
 -------------------------------------------------------
 using 6 threads for integral computing
 -------------------------------------------------------
 OpenMP Integral computing Module                
 Release: version 1.0, May 2013, Q-Chem Inc. Pittsburgh 
 -------------------------------------------------------
 ---------------------------------------
  Cycle       Energy         DIIS Error
 ---------------------------------------
    1    -409.9425510279      8.14E-03
    2    -409.9122250897      5.32E-03
    3    -409.9507917128      1.55E-03
    4    -410.0000761747      9.39E-04 Done RCA. Switching to DIIS
    5    -410.0031429751      1.68E-03
    6    -410.0136436160      1.39E-04
    7    -410.0138186550      6.84E-05
    8    -410.0139495957      6.11E-05
    9    -410.0140136824      5.04E-05
   10    -410.0141417584      4.37E-05
   11    -410.0142582140      3.33E-05
   12    -410.0143113148      2.13E-05
   13    -410.0143337084      1.11E-05
   14    -410.0143415120      3.64E-06 Convergence criterion met
 ---------------------------------------
 <S^2> = 2.0135
 SCF time:  CPU 86.25 s  wall 14.41 s
 SCF   energy in the final basis set = -410.01434151
 Total energy in the final basis set = -410.01434151
 
 --------------------------------------------------------------
 
                    Orbital Energies (a.u.)
 --------------------------------------------------------------
 
 Alpha MOs
 -- Occupied --
-19.4300 -19.3763 -19.3589 -19.3373 -14.7912 -14.5958  -1.5327  -1.3601
 -1.3221  -1.2469  -0.9134  -0.7798  -0.7664  -0.7298  -0.7175  -0.6403
 -0.6163  -0.6134  -0.5470  -0.5220  -0.4656  -0.4534  -0.4310  -0.3234
 -- Virtual --
 -0.0167   0.0256   0.0861   0.1197   0.1329   0.1339   0.1694   0.1783
  0.1887   0.2223   0.2404   0.2490   0.2664   0.2764   0.2854   0.2922
  0.3087   0.3371   0.3406   0.3514   0.3547   0.3591   0.3784   0.3996
  0.4235   0.4272   0.4577   0.4778   0.4993   0.5367   0.7290   0.7576
  0.8077   0.8366   0.8701   0.9016   0.9221   0.9718   0.9776   1.0135
  1.0305   1.0480   1.0579   1.0765   1.0812   1.0969   1.1107   1.1233
  1.1311   1.1450   1.1586   1.1704   1.1975   1.2536   1.3105   1.3625
  1.4340   1.5026   1.5164   1.5529   1.5817   1.6042   1.6105   1.6518
  1.6578   1.6732   1.6780   1.7912   1.8626   1.9546   1.9769   2.0485
  2.1486   2.1739   2.2000   2.3141   2.3570   2.4727   2.4872   2.5112
  2.5700   2.5765   2.7991   2.8577   3.5251   3.5380   3.6059   3.6378
  3.6576   3.6892   3.7189   3.7623   3.7789   3.8008   3.8313   3.9394
  3.9918   4.0258   4.0898   4.1798   4.3112   4.4246   4.4499   4.4576
  4.4922   4.5130   4.5741   4.6661   4.6730   4.7134   4.7209   4.7928
  4.8727   4.9320   4.9869   5.0007   5.0264   5.0325   5.0363   5.0457
  5.0654   5.1023   5.1101   5.1209   5.1359   5.1748   5.1779   5.1936
  5.2092   5.2692   5.3277   5.3669   5.4340   5.5057   5.5378   5.5733
  5.6508   5.7063   5.7414   5.8516   5.9339   6.2004   6.4063   6.5467
  6.6712   6.6790   6.7182   6.7284   6.7484   6.7552   6.7607   6.7671
  6.8220   6.8314   6.9102   6.9340   6.9652   7.1234   7.1367   7.1855
  7.2022   7.2159   7.2779   7.3656   7.4293   7.5214   7.5409   7.6928
  7.7193   7.8372   7.9830   8.0036   8.1176   8.4032  35.9464  36.4477
 50.1746  50.1944  50.2513  50.3649
 
 Beta MOs
 -- Occupied --
-19.4218 -19.3612 -19.3499 -19.3339 -14.7915 -14.5796  -1.5236  -1.3327
 -1.3000  -1.2326  -0.8788  -0.7769  -0.7363  -0.7103  -0.6901  -0.5980
 -0.5801  -0.5442  -0.5075  -0.4992  -0.4570  -0.3830
 -- Virtual --
 -0.1789  -0.0117   0.0088   0.0605   0.0878   0.1230   0.1342   0.1365
  0.1701   0.1819   0.1924   0.2226   0.2438   0.2512   0.2678   0.2790
  0.2894   0.2958   0.3160   0.3376   0.3431   0.3530   0.3568   0.3605
  0.3805   0.4100   0.4282   0.4381   0.4597   0.4816   0.5162   0.5477
  0.7374   0.7649   0.8193   0.8569   0.8820   0.9082   0.9287   0.9769
  0.9875   1.0191   1.0348   1.0591   1.0696   1.0845   1.0927   1.1061
  1.1232   1.1356   1.1441   1.1565   1.1670   1.1900   1.2100   1.2612
  1.3280   1.3737   1.4472   1.5110   1.5299   1.5622   1.5937   1.6182
  1.6298   1.6630   1.6705   1.6814   1.6970   1.8062   1.8791   1.9699
  1.9811   2.0593   2.1666   2.1847   2.2154   2.3211   2.3641   2.4814
  2.4984   2.5203   2.5798   2.5810   2.8102   2.8675   3.5522   3.5632
  3.6207   3.6441   3.6693   3.7076   3.7281   3.7817   3.7987   3.8405
  3.8728   3.9516   4.0173   4.0409   4.0984   4.1911   4.3176   4.4361
  4.4553   4.4606   4.4997   4.5158   4.5778   4.6841   4.6997   4.7367
  4.7684   4.8257   4.9180   4.9691   4.9996   5.0173   5.0438   5.0627
  5.0681   5.0728   5.0882   5.1237   5.1294   5.1425   5.1513   5.1894
  5.1981   5.2108   5.2304   5.2923   5.3413   5.3837   5.4547   5.5228
  5.5619   5.5878   5.6730   5.7206   5.7589   5.8592   5.9413   6.2228
  6.4253   6.5515   6.6901   6.7173   6.7351   6.7527   6.7698   6.7852
  6.8087   6.8161   6.8412   6.8546   6.9170   6.9445   6.9852   7.1451
  7.1518   7.2163   7.2212   7.2254   7.2942   7.3883   7.4448   7.5404
  7.5520   7.7076   7.7427   7.8593   7.9909   8.0155   8.1229   8.4129
 35.9659  36.4475  50.1816  50.2074  50.2590  50.3696
 --------------------------------------------------------------
 
 -----------------------------------------------------------------
                    Cartesian Multipole Moments
 -----------------------------------------------------------------
    Charge (ESU x 10^10)
                 0.0000
    Dipole Moment (Debye)
         X      -0.5136      Y      -0.2350      Z      -0.4738
       Tot       0.7372
    Quadrupole Moments (Debye-Ang)
        XX     -33.2416     XY      -1.4583     YY     -34.2923
        XZ      -2.4196     YZ       0.8921     ZZ     -35.1108
    Octopole Moments (Debye-Ang^2)
       XXX     -34.0002    XXY     -12.6970    XYY     -11.6781
       YYY     -39.1735    XXZ     -96.6269    XYZ      -5.5523
       YYZ     -94.8594    XZZ     -18.5674    YZZ      -3.7183
       ZZZ    -290.1097
    Hexadecapole Moments (Debye-Ang^3)
      XXXX    -132.4433   XXXY     -64.4390   XXYY     -81.3215
      XYYY     -65.8471   YYYY    -354.3036   XXXZ     -87.0992
      XXYZ     -14.3962   XYYZ     -28.2726   YYYZ     -36.8116
      XXZZ    -322.0064   XYZZ     -40.9050   YYZZ    -344.0394
      XZZZ    -100.2056   YZZZ      11.8783   ZZZZ   -1765.7571
 -----------------------------------------------------------------
Archival summary:
1\1\centos77-c5\SP\ProcedureUnspecified\BasisUnspecified\42(3)\shihchen\MonJul1315:43:332020MonJul1315:43:332020\0\\#,ProcedureUnspecified,BasisUnspecified,\\0,3\N\O,1,1.16821\O,1,1.18506,2,129.394\O,1,1.18523,2,108.437,3,-178.307,0\N,3,1.60491,1,115.441,2,4.69976,0\O,5,1.16573,3,123.538,1,95.6829,0\\\@

 Total job time:  20.36s(wall), 111.54s(cpu) 
 Mon Jul 13 15:43:33 2020

        *************************************************************
        *                                                           *
        *  Thank you very much for using Q-Chem.  Have a nice day.  *
        *                                                           *
        *************************************************************


