                  Welcome to Q-Chem
     A Quantum Leap Into The Future Of Chemistry


 Q-Chem 5.3 (devel), Q-Chem, Inc., Pleasanton, CA (2020)

 Yihan Shao,  Zhengting Gan,  E. Epifanovsky,  A. T. B. Gilbert,  M. Wormit,  
 J. Kussmann,  A. W. Lange,  A. Behn,  Jia Deng,  Xintian Feng,  D. Ghosh,  
 M. Goldey,  P. R. Horn,  L. D. Jacobson,  I. Kaliman,  T. Kus,  A. Landau,  
 Jie Liu,  E. I. Proynov,  R. M. Richard,  R. P. Steele,  E. J. Sundstrom,  
 H. L. Woodcock III,  P. M. Zimmerman,  D. Zuev,  B. Alam,  B. Albrecht,  
 E. Alguire,  S. A. Baeppler,  D. Barton,  Z. Benda,  Y. A. Bernard,  
 E. J. Berquist,  K. B. Bravaya,  H. Burton,  K. Carter-Fenk,  D. Casanova,  
 Chun-Min Chang,  Yunqing Chen,  A. Chien,  K. D. Closser,  M. P. Coons,  
 S. Coriani,  S. Dasgupta,  A. L. Dempwolff,  M. Diedenhofen,  Hainam Do,  
 R. G. Edgar,  Po-Tung Fang,  S. Faraji,  S. Fatehi,  Qingguo Feng,  
 J. Fosso-Tande,  J. Gayvert,  Qinghui Ge,  A. Ghysels,  G. Gidofalvi,  
 J. Gomes,  J. Gonthier,  A. Gunina,  D. Hait,  M. W. D. Hanson-Heine,  
 P. H. P. Harbach,  A. W. Hauser,  M. F. Herbst,  J. E. Herr,  
 E. G. Hohenstein,  Z. C. Holden,  Kerwin Hui,  B. C. Huynh,  T.-C. Jagau,  
 Hyunjun Ji,  B. Kaduk,  K. Khistyaev,  Jaehoon Kim,  P. Klunzinger,  K. Koh,  
 D. Kosenkov,  L. Koulias,  T. Kowalczyk,  C. M. Krauter,  A. Kunitsa,  
 Ka Un Lao,  A. Laurent,  K. V. Lawler,  Joonho Lee,  D. Lefrancois,  
 S. Lehtola,  D. S. Levine,  Yi-Pei Li,  You-Sheng Lin,  Fenglai Liu,  
 Kuan-Yu Liu,  E. Livshits,  M. Loipersberger,  A. Luenser,  P. Manohar,  
 E. Mansoor,  S. F. Manzer,  Shan-Ping Mao,  Yuezhi Mao,  N. Mardirossian,  
 A. V. Marenich,  T. Markovich,  L. A. Martinez-Martinez,  S. A. Maurer,  
 N. J. Mayhall,  S. C. McKenzie,  J.-M. Mewes,  P. Morgante,  A. F. Morrison,  
 J. W. Mullinax,  K. Nanda,  T. S. Nguyen-Beck,  R. Olivares-Amaya,  
 K. J. Oosterbaan,  J. A. Parkhill,  S. K. Paul,  F. Pavosevic,  Zheng Pei,  
 T. M. Perrine,  F. Plasser,  P. Pokhilko,  S. Prager,  A. Prociuk,  
 E. Ramos,  B. Rana,  D. R. Rehn,  F. Rob,  M. Scheurer,  M. Schneider,  
 N. Sergueev,  S. M. Sharada,  S. Sharma,  D. W. Small,  T. Stauch,  
 C. J. Stein,  T. Stein,  Yu-Chuan Su,  S. P. Veccham,  Zhen Tao,  
 A. J. W. Thom,  A. Tkatchenko,  T. Tsuchimochi,  N. M. Tubman,  L. Vogt,  
 M. L. Vidal,  O. Vydrov,  M. A. Watson,  J. Wenzel,  M. de Wergifosse,  
 T. A. Wesolowski,  A. White,  J. Witte,  A. Yamada,  Jun Yang,  K. Yao,  
 S. Yeganeh,  S. R. Yost,  Zhi-Qiang You,  A. Zech,  Igor Ying Zhang,  
 Xing Zhang,  Yan Zhao,  Ying Zhu,  B. R. Brooks,  G. K. L. Chan,  
 C. J. Cramer,  M. S. Gordon,  W. J. Hehre,  A. Klamt,  M. W. Schmidt,  
 C. D. Sherrill,  D. G. Truhlar,  A. Aspuru-Guzik,  R. Baer,  A. T. Bell,  
 N. A. Besley,  Jeng-Da Chai,  A. E. DePrince, III,  R. A. DiStasio Jr.,  
 A. Dreuw,  B. D. Dunietz,  T. R. Furlani,  Chao-Ping Hsu,  Yousung Jung,  
 Jing Kong,  D. S. Lambrecht,  WanZhen Liang,  C. Ochsenfeld,  
 V. A. Rassolov,  L. V. Slipchenko,  J. E. Subotnik,  T. Van Voorhis,  
 J. M. Herbert,  A. I. Krylov,  P. M. W. Gill,  M. Head-Gordon

 Contributors to earlier versions of Q-Chem not listed above: 
 R. D. Adamson,  B. Austin,  J. Baker,  G. J. O. Beran,  K. Brandhorst,  
 S. T. Brown,  E. F. C. Byrd,  A. K. Chakraborty,  C.-L. Cheng,  
 Siu Hung Chien,  D. M. Chipman,  D. L. Crittenden,  H. Dachsel,  
 R. J. Doerksen,  A. D. Dutoi,  L. Fusti-Molnar,  W. A. Goddard III,  
 A. Golubeva-Zadorozhnaya,  S. R. Gwaltney,  G. Hawkins,  A. Heyden,  
 S. Hirata,  G. Kedziora,  F. J. Keil,  C. Kelley,  Jihan Kim,  R. A. King,  
 R. Z. Khaliullin,  P. P. Korambath,  W. Kurlancheek,  A. M. Lee,  M. S. Lee,  
 S. V. Levchenko,  Ching Yeh Lin,  D. Liotard,  R. C. Lochan,  I. Lotan,  
 P. E. Maslen,  N. Nair,  D. P. O'Neill,  D. Neuhauser,  E. Neuscamman,  
 C. M. Oana,  R. Olson,  B. Peters,  R. Peverati,  P. A. Pieniazek,  
 Y. M. Rhee,  J. Ritchie,  M. A. Rohrdanz,  E. Rosta,  N. J. Russ,  
 H. F. Schaefer III,  N. E. Schultz,  N. Shenvi,  A. C. Simmonett,  A. Sodt,  
 D. Stuck,  K. S. Thanthiriwatte,  V. Vanovschi,  Tao Wang,  A. Warshel,  
 C. F. Williams,  Q. Wu,  X. Xu,  W. Zhang

 Please cite Q-Chem as follows:
 Y. Shao et al., Mol. Phys. 113, 184-215 (2015)
 DOI: 10.1080/00268976.2014.952696

 Q-Chem 5.3.0 for Intel X86 EM64T Linux

 Parts of Q-Chem use Armadillo 9.800.1 (Horizon Scraper).
 http://arma.sourceforge.net/

 Q-Chem begins on Mon Jul 13 15:44:31 2020  

Host: centos77-c5
0

     Scratch files written to /tmp/29025.centos77-h1/qchem80565//
Processing $rem in /opt/qchem-5.3.0-intel2020u1//config/preferences:
Processing $rem in /home/shihchengli/.qchemrc:

Checking the input file for inconsistencies... 	...done.

--------------------------------------------------------------
User input:
--------------------------------------------------------------
$rem
   JOBTYPE  sp
   EXCHANGE   omegaB97X-D
   BASIS   6-311+G(2df,2pd)
   UNRESTRICTED   True
   max_scf_cycles   250
   geom_opt_max_cycles   1500
   basis2 6-31G*
   scf_algorithm rca_diis
   SYM_IGNORE  TRUE
   print_input   true
   geom_opt_dmax   80
   pop_mulliken false
   XC_GRID 000075000302
$end

$molecule
0 3
N       0.8000648309     1.3360589240     2.5011845207
O       0.2918380218     2.1710614466     1.8131500712
O       1.6217976144     0.8899124106     3.2513193938
N       0.0471422010     -1.1745767652     3.1387314530
O       -0.4705591864     -1.3024049853     4.1813973713
O       -0.3452923517     0.1749380794     2.2145170800
$end
--------------------------------------------------------------
 ----------------------------------------------------------------
             Standard Nuclear Orientation (Angstroms)
    I     Atom           X                Y                Z
 ----------------------------------------------------------------
    1      N       0.8000648309     1.3360589240     2.5011845207
    2      O       0.2918380218     2.1710614466     1.8131500712
    3      O       1.6217976144     0.8899124106     3.2513193938
    4      N       0.0471422010    -1.1745767652     3.1387314530
    5      O      -0.4705591864    -1.3024049853     4.1813973713
    6      O      -0.3452923517     0.1749380794     2.2145170800
 ----------------------------------------------------------------
 Nuclear Repulsion Energy =         225.53875783 hartrees
 There are       24 alpha and       22 beta electrons
 Requested basis set is 6-311+G(2df,2pd)
 There are 48 shells and 204 basis functions

 Total QAlloc Memory Limit   2000 MB
 Mega-Array Size       188 MB
 MEM_STATIC part       192 MB

                       Distance Matrix (Angstroms)
             N (  1)   O (  2)   O (  3)   N (  4)   O (  5)
   O (  2)  1.195372
   O (  3)  1.198747  2.340612
   N (  4)  2.697527  3.606984  2.598910
   O (  5)  3.376254  4.272565  3.170056  1.171114
   O (  6)  1.655966  2.133434  2.335721  1.682072  2.463098
 
 A cutoff of  1.0D-09 yielded   1018 shell pairs
 There are     18939 function pairs (     24833 Cartesian)
 Smallest overlap matrix eigenvalue = 5.83E-04

 Scale SEOQF with 1.000000e-01/1.000000e-01/1.000000e-01

 Standard Electronic Orientation quadrupole field applied
 Nucleus-field energy     =    -0.0000000364 hartrees
 Requested basis set is 6-31G(d)
 There are 24 shells and 84 basis functions
 A cutoff of  1.0D-09 yielded    268 shell pairs
 There are      3537 function pairs (      4065 Cartesian)
 Smallest overlap matrix eigenvalue = 3.53E-03
 Guess from superposition of atomic densities
 Warning:  Energy on first SCF cycle will be non-variational
 SAD guess density has 46.000000 electrons
 Long-range K will be added via erf
 Coulomb attenuation parameter = 0.2 bohr**(-1)
 An unrestricted hybrid HF-DFT SCF calculation will be
 performed using Relaxed Constraint Minimization + Pulay DIIS
 Exchange:     0.2220 Hartree-Fock + 1.0000 wB97X-D + LR-HF
 Correlation:  1.0000 wB97X-D
 Using Euler-Maclaurin-Lebedev (75,302) quadrature formula
 Dispersion:   Grimme D
 SCF converges when DIIS error is below 1.0E-04
 using 6 threads for integral computing
 -------------------------------------------------------
 OpenMP Integral computing Module                
 Release: version 1.0, May 2013, Q-Chem Inc. Pittsburgh 
 -------------------------------------------------------
 using 6 threads for integral computing
 -------------------------------------------------------
 OpenMP Integral computing Module                
 Release: version 1.0, May 2013, Q-Chem Inc. Pittsburgh 
 -------------------------------------------------------
 ---------------------------------------
  Cycle       Energy         DIIS Error
 ---------------------------------------
    1    -410.6884514237      8.25E-02
    2    -409.6161634161      1.91E-02
    3    -409.7233812771      4.04E-03
    4    -409.8763078034      4.39E-03
    5    -409.8816898596      7.63E-04 Done RCA. Switching to DIIS
    6    -409.8896784740      7.76E-04
    7    -409.8904006454      1.67E-04
    8    -409.8905644864      1.19E-04
    9    -409.8906910793      4.10E-05 Convergence criterion met
 ---------------------------------------
 <S^2> = 2.0193
 SCF time:  CPU 15.22 s  wall 2.55 s
 SCF   energy in the small basis set = -409.89069108
 Total energy in the small basis set = -409.89069108
 ----------------------------------------------------
  Cycle       Energy    
 ----------------------------------------------------
    1     -41.6352454353     -4.16E+01
 Long-range K will be added via erf
 Coulomb attenuation parameter = 0.2 bohr**(-1)
 An unrestricted hybrid HF-DFT SCF calculation will be
 performed using Relaxed Constraint Minimization + Pulay DIIS
 Exchange:     0.2220 Hartree-Fock + 1.0000 wB97X-D + LR-HF
 Correlation:  1.0000 wB97X-D
 Using Euler-Maclaurin-Lebedev (75,302) quadrature formula
 Dispersion:   Grimme D
 SCF converges when DIIS error is below 1.0E-05
 Basis2 calculation detected. Using small basis as guess for larger.
 SCFMinFind is unable to tell whether the solution found is close.
 Resetting ReadMinima to 0 and attempting to follow guess.
 SCFMinFind following SCF Guess.
 using 6 threads for integral computing
 -------------------------------------------------------
 OpenMP Integral computing Module                
 Release: version 1.0, May 2013, Q-Chem Inc. Pittsburgh 
 -------------------------------------------------------
 using 6 threads for integral computing
 -------------------------------------------------------
 OpenMP Integral computing Module                
 Release: version 1.0, May 2013, Q-Chem Inc. Pittsburgh 
 -------------------------------------------------------
 ---------------------------------------
  Cycle       Energy         DIIS Error
 ---------------------------------------
    1    -409.9755809956      8.06E-03
    2    -409.9804025409      4.37E-03
    3    -410.0060171622      9.59E-04 Done RCA. Switching to DIIS
    4    -410.0405090759      1.07E-03
    5    -410.0445483970      2.15E-04
    6    -410.0448148618      5.94E-05
    7    -410.0449481660      2.82E-05
    8    -410.0449805632      2.65E-05
    9    -410.0450000152      9.03E-06 Convergence criterion met
 ---------------------------------------
 <S^2> = 2.0208
 SCF time:  CPU 53.28 s  wall 8.91 s
 SCF   energy in the final basis set = -410.04500002
 Total energy in the final basis set = -410.04500002
 
 --------------------------------------------------------------
 
                    Orbital Energies (a.u.)
 --------------------------------------------------------------
 
 Alpha MOs
 -- Occupied --
-19.3999 -19.3982 -19.3732 -19.3538 -14.7858 -14.5918  -1.4302  -1.3406
 -1.2995  -1.1173  -0.8247  -0.7875  -0.7212  -0.7146  -0.6997  -0.6388
 -0.6173  -0.6057  -0.5072  -0.5009  -0.4520  -0.4490  -0.4184  -0.3118
 -- Virtual --
 -0.0522   0.0055   0.0364   0.0750   0.1230   0.1348   0.1425   0.1630
  0.1728   0.1812   0.1927   0.2308   0.2437   0.2566   0.2680   0.2817
  0.2927   0.3016   0.3189   0.3409   0.3556   0.3647   0.3700   0.3893
  0.4064   0.4158   0.4522   0.4591   0.5103   0.5809   0.7461   0.7656
  0.8126   0.8205   0.8563   0.8812   0.8855   0.9541   0.9788   1.0028
  1.0211   1.0310   1.0581   1.0764   1.0899   1.0985   1.1171   1.1378
  1.1504   1.1555   1.1734   1.2092   1.2220   1.2399   1.2523   1.2972
  1.4010   1.4069   1.4515   1.4796   1.5060   1.5618   1.6007   1.6127
  1.6639   1.6954   1.7163   1.7631   1.8292   1.8614   1.8908   1.9600
  1.9698   2.0410   2.1686   2.2975   2.3079   2.4154   2.4725   2.4795
  2.5001   2.5392   2.6547   2.6871   3.4896   3.5307   3.5521   3.5736
  3.5910   3.5932   3.6515   3.6698   3.7030   3.7856   3.8228   3.8274
  3.8745   3.9320   3.9961   4.0460   4.0527   4.2007   4.4255   4.4432
  4.4624   4.6248   4.6533   4.6888   4.7014   4.7534   4.7997   4.8129
  4.8550   4.9417   4.9852   4.9972   5.0142   5.0182   5.0374   5.0395
  5.0600   5.0636   5.0836   5.1086   5.1143   5.1349   5.1582   5.1619
  5.2142   5.2277   5.2297   5.2842   5.3252   5.3577   5.4046   5.4323
  5.5013   5.5285   5.5559   5.6069   5.6585   5.6816   5.8226   6.0061
  6.0819   6.1934   6.4513   6.6626   6.6843   6.7301   6.7439   6.7609
  6.7686   6.7694   6.7936   6.8346   6.9402   7.0031   7.0186   7.1032
  7.1841   7.2152   7.2250   7.3160   7.3222   7.3793   7.4001   7.4782
  7.4990   7.5820   7.7097   7.7256   7.8688   8.7596  35.9383  35.9889
 50.0120  50.1483  50.1861  50.3151
 
 Beta MOs
 -- Occupied --
-19.4004 -19.3965 -19.3557 -19.3397 -14.7847 -14.5755  -1.4275  -1.3041
 -1.2977  -1.0737  -0.8033  -0.7477  -0.7131  -0.7002  -0.6979  -0.5857
 -0.5571  -0.5400  -0.5008  -0.4901  -0.4345  -0.4267
 -- Virtual --
 -0.1128  -0.0502  -0.0126   0.0511   0.0784   0.0928   0.1283   0.1385
  0.1464   0.1651   0.1750   0.1857   0.1966   0.2319   0.2469   0.2594
  0.2696   0.2853   0.2958   0.3066   0.3233   0.3427   0.3576   0.3668
  0.3722   0.3941   0.4109   0.4247   0.4551   0.4639   0.5288   0.5843
  0.7506   0.7801   0.8196   0.8340   0.8733   0.8843   0.8974   0.9658
  0.9829   1.0079   1.0273   1.0388   1.0721   1.0930   1.1057   1.1143
  1.1228   1.1494   1.1577   1.1652   1.1962   1.2147   1.2385   1.2483
  1.2661   1.3073   1.4120   1.4238   1.4546   1.4820   1.5198   1.5667
  1.6136   1.6359   1.6892   1.7134   1.7404   1.7746   1.8328   1.8663
  1.9000   1.9640   1.9881   2.0557   2.1926   2.3114   2.3247   2.4352
  2.4746   2.4835   2.5071   2.5537   2.6576   2.6916   3.4988   3.5415
  3.5621   3.5905   3.6094   3.6197   3.6538   3.6971   3.7164   3.8190
  3.8392   3.8854   3.8902   3.9523   4.0296   4.0529   4.0681   4.2033
  4.4277   4.4456   4.4710   4.6542   4.6603   4.7202   4.7501   4.7807
  4.8248   4.8467   4.8747   4.9838   4.9946   5.0064   5.0188   5.0244
  5.0621   5.0656   5.0788   5.0802   5.1014   5.1216   5.1358   5.1562
  5.1838   5.1907   5.2297   5.2395   5.2494   5.3197   5.3488   5.3723
  5.4167   5.4472   5.5223   5.5580   5.5694   5.6102   5.6847   5.6900
  5.8422   6.0398   6.1148   6.1940   6.4535   6.6997   6.7184   6.7345
  6.7692   6.7741   6.7857   6.8226   6.8287   6.8381   6.9609   7.0231
  7.0409   7.1281   7.2224   7.2336   7.2493   7.3171   7.3239   7.3943
  7.4206   7.4977   7.5205   7.5853   7.7394   7.7680   7.8724   8.7611
 35.9579  35.9904  50.0274  50.1496  50.2023  50.3157
 --------------------------------------------------------------
 
 -----------------------------------------------------------------
                    Cartesian Multipole Moments
 -----------------------------------------------------------------
    Charge (ESU x 10^10)
                -0.0000
    Dipole Moment (Debye)
         X       1.0420      Y       1.0295      Z       0.0548
       Tot       1.4659
    Quadrupole Moments (Debye-Ang)
        XX     -31.6612     XY       0.5711     YY     -30.7098
        XZ       1.9979     YZ       3.5777     ZZ     -32.6105
    Octopole Moments (Debye-Ang^2)
       XXX     -30.4022    XXY     -10.1908    XYY      -8.5736
       YYY     -33.0399    XXZ     -91.9316    XYZ       0.0172
       YYZ     -86.0299    XZZ      -5.6751    YZZ       2.6278
       ZZZ    -280.5065
    Hexadecapole Moments (Debye-Ang^3)
      XXXX    -141.4900   XXXY     -57.3306   XXYY     -80.6386
      XYYY     -58.0960   YYYY    -353.0359   XXXZ     -84.3140
      XXYZ      -7.5736   XYYZ     -21.8218   YYYZ     -18.8409
      XXZZ    -311.8986   XYZZ     -24.2255   YYZZ    -324.3414
      XZZZ     -68.2766   YZZZ      30.9114   ZZZZ   -1743.4112
 -----------------------------------------------------------------
Archival summary:
1\1\centos77-c5\SP\ProcedureUnspecified\BasisUnspecified\42(3)\shihchen\MonJul1315:44:442020MonJul1315:44:442020\0\\#,ProcedureUnspecified,BasisUnspecified,\\0,3\N\O,1,1.19537\O,1,1.19875,2,155.728\O,1,1.65597,2,95.5138,3,178.801,0\N,4,1.68207,1,107.822,2,-177.185,0\O,5,1.17111,4,118.27,1,95.6949,0\\\@

 Total job time:  13.69s(wall), 72.65s(cpu) 
 Mon Jul 13 15:44:44 2020

        *************************************************************
        *                                                           *
        *  Thank you very much for using Q-Chem.  Have a nice day.  *
        *                                                           *
        *************************************************************


