                  Welcome to Q-Chem
     A Quantum Leap Into The Future Of Chemistry


 Q-Chem 5.3 (devel), Q-Chem, Inc., Pleasanton, CA (2020)

 Yihan Shao,  Zhengting Gan,  E. Epifanovsky,  A. T. B. Gilbert,  M. Wormit,  
 J. Kussmann,  A. W. Lange,  A. Behn,  Jia Deng,  Xintian Feng,  D. Ghosh,  
 M. Goldey,  P. R. Horn,  L. D. Jacobson,  I. Kaliman,  T. Kus,  A. Landau,  
 Jie Liu,  E. I. Proynov,  R. M. Richard,  R. P. Steele,  E. J. Sundstrom,  
 H. L. Woodcock III,  P. M. Zimmerman,  D. Zuev,  B. Alam,  B. Albrecht,  
 E. Alguire,  S. A. Baeppler,  D. Barton,  Z. Benda,  Y. A. Bernard,  
 E. J. Berquist,  K. B. Bravaya,  H. Burton,  K. Carter-Fenk,  D. Casanova,  
 Chun-Min Chang,  Yunqing Chen,  A. Chien,  K. D. Closser,  M. P. Coons,  
 S. Coriani,  S. Dasgupta,  A. L. Dempwolff,  M. Diedenhofen,  Hainam Do,  
 R. G. Edgar,  Po-Tung Fang,  S. Faraji,  S. Fatehi,  Qingguo Feng,  
 J. Fosso-Tande,  J. Gayvert,  Qinghui Ge,  A. Ghysels,  G. Gidofalvi,  
 J. Gomes,  J. Gonthier,  A. Gunina,  D. Hait,  M. W. D. Hanson-Heine,  
 P. H. P. Harbach,  A. W. Hauser,  M. F. Herbst,  J. E. Herr,  
 E. G. Hohenstein,  Z. C. Holden,  Kerwin Hui,  B. C. Huynh,  T.-C. Jagau,  
 Hyunjun Ji,  B. Kaduk,  K. Khistyaev,  Jaehoon Kim,  P. Klunzinger,  K. Koh,  
 D. Kosenkov,  L. Koulias,  T. Kowalczyk,  C. M. Krauter,  A. Kunitsa,  
 Ka Un Lao,  A. Laurent,  K. V. Lawler,  Joonho Lee,  D. Lefrancois,  
 S. Lehtola,  D. S. Levine,  Yi-Pei Li,  You-Sheng Lin,  Fenglai Liu,  
 Kuan-Yu Liu,  E. Livshits,  M. Loipersberger,  A. Luenser,  P. Manohar,  
 E. Mansoor,  S. F. Manzer,  Shan-Ping Mao,  Yuezhi Mao,  N. Mardirossian,  
 A. V. Marenich,  T. Markovich,  L. A. Martinez-Martinez,  S. A. Maurer,  
 N. J. Mayhall,  S. C. McKenzie,  J.-M. Mewes,  P. Morgante,  A. F. Morrison,  
 J. W. Mullinax,  K. Nanda,  T. S. Nguyen-Beck,  R. Olivares-Amaya,  
 K. J. Oosterbaan,  J. A. Parkhill,  S. K. Paul,  F. Pavosevic,  Zheng Pei,  
 T. M. Perrine,  F. Plasser,  P. Pokhilko,  S. Prager,  A. Prociuk,  
 E. Ramos,  B. Rana,  D. R. Rehn,  F. Rob,  M. Scheurer,  M. Schneider,  
 N. Sergueev,  S. M. Sharada,  S. Sharma,  D. W. Small,  T. Stauch,  
 C. J. Stein,  T. Stein,  Yu-Chuan Su,  S. P. Veccham,  Zhen Tao,  
 A. J. W. Thom,  A. Tkatchenko,  T. Tsuchimochi,  N. M. Tubman,  L. Vogt,  
 M. L. Vidal,  O. Vydrov,  M. A. Watson,  J. Wenzel,  M. de Wergifosse,  
 T. A. Wesolowski,  A. White,  J. Witte,  A. Yamada,  Jun Yang,  K. Yao,  
 S. Yeganeh,  S. R. Yost,  Zhi-Qiang You,  A. Zech,  Igor Ying Zhang,  
 Xing Zhang,  Yan Zhao,  Ying Zhu,  B. R. Brooks,  G. K. L. Chan,  
 C. J. Cramer,  M. S. Gordon,  W. J. Hehre,  A. Klamt,  M. W. Schmidt,  
 C. D. Sherrill,  D. G. Truhlar,  A. Aspuru-Guzik,  R. Baer,  A. T. Bell,  
 N. A. Besley,  Jeng-Da Chai,  A. E. DePrince, III,  R. A. DiStasio Jr.,  
 A. Dreuw,  B. D. Dunietz,  T. R. Furlani,  Chao-Ping Hsu,  Yousung Jung,  
 Jing Kong,  D. S. Lambrecht,  WanZhen Liang,  C. Ochsenfeld,  
 V. A. Rassolov,  L. V. Slipchenko,  J. E. Subotnik,  T. Van Voorhis,  
 J. M. Herbert,  A. I. Krylov,  P. M. W. Gill,  M. Head-Gordon

 Contributors to earlier versions of Q-Chem not listed above: 
 R. D. Adamson,  B. Austin,  J. Baker,  G. J. O. Beran,  K. Brandhorst,  
 S. T. Brown,  E. F. C. Byrd,  A. K. Chakraborty,  C.-L. Cheng,  
 Siu Hung Chien,  D. M. Chipman,  D. L. Crittenden,  H. Dachsel,  
 R. J. Doerksen,  A. D. Dutoi,  L. Fusti-Molnar,  W. A. Goddard III,  
 A. Golubeva-Zadorozhnaya,  S. R. Gwaltney,  G. Hawkins,  A. Heyden,  
 S. Hirata,  G. Kedziora,  F. J. Keil,  C. Kelley,  Jihan Kim,  R. A. King,  
 R. Z. Khaliullin,  P. P. Korambath,  W. Kurlancheek,  A. M. Lee,  M. S. Lee,  
 S. V. Levchenko,  Ching Yeh Lin,  D. Liotard,  R. C. Lochan,  I. Lotan,  
 P. E. Maslen,  N. Nair,  D. P. O'Neill,  D. Neuhauser,  E. Neuscamman,  
 C. M. Oana,  R. Olson,  B. Peters,  R. Peverati,  P. A. Pieniazek,  
 Y. M. Rhee,  J. Ritchie,  M. A. Rohrdanz,  E. Rosta,  N. J. Russ,  
 H. F. Schaefer III,  N. E. Schultz,  N. Shenvi,  A. C. Simmonett,  A. Sodt,  
 D. Stuck,  K. S. Thanthiriwatte,  V. Vanovschi,  Tao Wang,  A. Warshel,  
 C. F. Williams,  Q. Wu,  X. Xu,  W. Zhang

 Please cite Q-Chem as follows:
 Y. Shao et al., Mol. Phys. 113, 184-215 (2015)
 DOI: 10.1080/00268976.2014.952696

 Q-Chem 5.3.0 for Intel X86 EM64T Linux

 Parts of Q-Chem use Armadillo 9.800.1 (Horizon Scraper).
 http://arma.sourceforge.net/

 Q-Chem begins on Mon Jul 13 15:29:22 2020  

Host: centos77-c5
0

     Scratch files written to /tmp/29025.centos77-h1/qchem71798//
Processing $rem in /opt/qchem-5.3.0-intel2020u1//config/preferences:
Processing $rem in /home/shihchengli/.qchemrc:

Checking the input file for inconsistencies... 	...done.

--------------------------------------------------------------
User input:
--------------------------------------------------------------
$rem
   JOBTYPE  sp
   EXCHANGE   omegaB97X-D
   BASIS   6-311+G(2df,2pd)
   UNRESTRICTED   True
   max_scf_cycles   250
   geom_opt_max_cycles   1500
   basis2 6-31G*
   scf_algorithm rca_diis
   SYM_IGNORE  TRUE
   print_input   true
   geom_opt_dmax   80
   pop_mulliken false
   XC_GRID 000075000302
$end

$molecule
0 3
N       0.6680938682     1.1211673722     2.5318574835
O       0.2364087739     2.0898919802     1.9671777298
O       1.6567740232     0.9436666771     3.1660184644
N       0.1477204604     -1.2705069110     3.1076670948
O       -0.5306907482     -0.9810350024     4.0097781729
O       -0.2333152474     0.1918049939     2.3178009446
$end
--------------------------------------------------------------
 ----------------------------------------------------------------
             Standard Nuclear Orientation (Angstroms)
    I     Atom           X                Y                Z
 ----------------------------------------------------------------
    1      N       0.6680938682     1.1211673722     2.5318574835
    2      O       0.2364087739     2.0898919802     1.9671777298
    3      O       1.6567740232     0.9436666771     3.1660184644
    4      N       0.1477204604    -1.2705069110     3.1076670948
    5      O      -0.5306907482    -0.9810350024     4.0097781729
    6      O      -0.2333152474     0.1918049939     2.3178009446
 ----------------------------------------------------------------
 Nuclear Repulsion Energy =         239.53086152 hartrees
 There are       24 alpha and       22 beta electrons
 Requested basis set is 6-311+G(2df,2pd)
 There are 48 shells and 204 basis functions

 Total QAlloc Memory Limit   2000 MB
 Mega-Array Size       188 MB
 MEM_STATIC part       192 MB

                       Distance Matrix (Angstroms)
             N (  1)   O (  2)   O (  3)   N (  4)   O (  5)
   O (  2)  1.201517
   O (  3)  1.187920  2.183687
   N (  4)  2.514448  3.549769  2.680152
   O (  5)  2.835593  3.767128  3.033382  1.165264
   O (  6)  1.312278  1.986533  2.203907  1.705120  2.080090
 
 A cutoff of  1.0D-09 yielded   1051 shell pairs
 There are     19605 function pairs (     25779 Cartesian)
 Smallest overlap matrix eigenvalue = 6.93E-04

 Scale SEOQF with 1.000000e-01/1.000000e-01/1.000000e-01

 Standard Electronic Orientation quadrupole field applied
 Nucleus-field energy     =    -0.0000000363 hartrees
 Requested basis set is 6-31G(d)
 There are 24 shells and 84 basis functions
 A cutoff of  1.0D-09 yielded    272 shell pairs
 There are      3573 function pairs (      4114 Cartesian)
 Smallest overlap matrix eigenvalue = 4.60E-03
 Guess from superposition of atomic densities
 Warning:  Energy on first SCF cycle will be non-variational
 SAD guess density has 46.000000 electrons
 Long-range K will be added via erf
 Coulomb attenuation parameter = 0.2 bohr**(-1)
 An unrestricted hybrid HF-DFT SCF calculation will be
 performed using Relaxed Constraint Minimization + Pulay DIIS
 Exchange:     0.2220 Hartree-Fock + 1.0000 wB97X-D + LR-HF
 Correlation:  1.0000 wB97X-D
 Using Euler-Maclaurin-Lebedev (75,302) quadrature formula
 Dispersion:   Grimme D
 SCF converges when DIIS error is below 1.0E-04
 using 6 threads for integral computing
 -------------------------------------------------------
 OpenMP Integral computing Module                
 Release: version 1.0, May 2013, Q-Chem Inc. Pittsburgh 
 -------------------------------------------------------
 using 6 threads for integral computing
 -------------------------------------------------------
 OpenMP Integral computing Module                
 Release: version 1.0, May 2013, Q-Chem Inc. Pittsburgh 
 -------------------------------------------------------
 ---------------------------------------
  Cycle       Energy         DIIS Error
 ---------------------------------------
    1    -411.1902913251      9.15E-02
    2    -409.6507394120      1.92E-02
    3    -409.7514748913      4.32E-03
    4    -409.8952754701      4.15E-03
    5    -409.9002677085      5.25E-04 Done RCA. Switching to DIIS
    6    -409.9067758584      3.27E-04
    7    -409.9070406243      9.56E-05 Convergence criterion met
 ---------------------------------------
 <S^2> = 2.0187
 SCF time:  CPU 13.72 s  wall 2.30 s
 SCF   energy in the small basis set = -409.90704062
 Total energy in the small basis set = -409.90704062
 ----------------------------------------------------
  Cycle       Energy    
 ----------------------------------------------------
    1     -41.8129606626     -4.18E+01
 Long-range K will be added via erf
 Coulomb attenuation parameter = 0.2 bohr**(-1)
 An unrestricted hybrid HF-DFT SCF calculation will be
 performed using Relaxed Constraint Minimization + Pulay DIIS
 Exchange:     0.2220 Hartree-Fock + 1.0000 wB97X-D + LR-HF
 Correlation:  1.0000 wB97X-D
 Using Euler-Maclaurin-Lebedev (75,302) quadrature formula
 Dispersion:   Grimme D
 SCF converges when DIIS error is below 1.0E-05
 Basis2 calculation detected. Using small basis as guess for larger.
 SCFMinFind is unable to tell whether the solution found is close.
 Resetting ReadMinima to 0 and attempting to follow guess.
 SCFMinFind following SCF Guess.
 using 6 threads for integral computing
 -------------------------------------------------------
 OpenMP Integral computing Module                
 Release: version 1.0, May 2013, Q-Chem Inc. Pittsburgh 
 -------------------------------------------------------
 using 6 threads for integral computing
 -------------------------------------------------------
 OpenMP Integral computing Module                
 Release: version 1.0, May 2013, Q-Chem Inc. Pittsburgh 
 -------------------------------------------------------
 ---------------------------------------
  Cycle       Energy         DIIS Error
 ---------------------------------------
    1    -409.9950818740      8.04E-03
    2    -410.0010297541      4.26E-03
    3    -410.0229132772      1.32E-03
    4    -410.0546395038      1.13E-03
    5    -410.0575431880      2.03E-04 Done RCA. Switching to DIIS
    6    -410.0617187186      2.69E-04
    7    -410.0621267587      7.35E-05
    8    -410.0622916944      3.54E-05
    9    -410.0623743604      2.76E-05
   10    -410.0624058010      1.64E-05
   11    -410.0624134084      7.56E-06 Convergence criterion met
 ---------------------------------------
 <S^2> = 2.0232
 SCF time:  CPU 74.17 s  wall 12.39 s
 SCF   energy in the final basis set = -410.06241341
 Total energy in the final basis set = -410.06241341
 
 --------------------------------------------------------------
 
                    Orbital Energies (a.u.)
 --------------------------------------------------------------
 
 Alpha MOs
 -- Occupied --
-19.4182 -19.4009 -19.3560 -19.3498 -14.7824 -14.5989  -1.4722  -1.3797
 -1.2708  -1.2259  -0.8624  -0.7887  -0.7393  -0.7261  -0.6990  -0.6555
 -0.6301  -0.6146  -0.5248  -0.5005  -0.4709  -0.4689  -0.4429  -0.3315
 -- Virtual --
 -0.0276  -0.0006   0.0876   0.1232   0.1340   0.1361   0.1650   0.1765
  0.1848   0.1952   0.2264   0.2392   0.2498   0.2611   0.2810   0.2913
  0.3033   0.3229   0.3359   0.3494   0.3590   0.3594   0.3729   0.3816
  0.4098   0.4339   0.4571   0.4598   0.5014   0.5198   0.7372   0.7664
  0.8013   0.8084   0.8432   0.8633   0.9477   0.9594   0.9669   1.0070
  1.0265   1.0284   1.0490   1.0638   1.0789   1.0906   1.1137   1.1226
  1.1485   1.1676   1.1775   1.1793   1.2207   1.2380   1.2591   1.3023
  1.4125   1.4902   1.5187   1.5397   1.5687   1.5714   1.6104   1.6249
  1.6469   1.6996   1.7753   1.8047   1.8225   1.9117   1.9516   2.0080
  2.0317   2.1466   2.1987   2.2264   2.3220   2.3746   2.4079   2.5022
  2.5386   2.5630   2.7066   2.8101   3.5410   3.5535   3.5856   3.6290
  3.6441   3.6591   3.6912   3.7144   3.7552   3.7839   3.8000   3.9344
  3.9730   3.9991   4.0126   4.1030   4.2035   4.3913   4.4269   4.4944
  4.5229   4.5831   4.6255   4.6296   4.6699   4.7045   4.7205   4.7390
  4.8504   4.9315   4.9705   4.9977   5.0167   5.0264   5.0357   5.0431
  5.0500   5.0871   5.1113   5.1126   5.1318   5.1488   5.1661   5.1813
  5.2071   5.3105   5.3129   5.3596   5.4090   5.4199   5.4835   5.5148
  5.5585   5.6075   5.6849   5.7186   5.8518   5.9699   6.0449   6.0967
  6.4726   6.5489   6.6696   6.6811   6.7029   6.7197   6.7609   6.7670
  6.7949   6.8265   6.8630   6.8816   6.9967   7.0200   7.1195   7.1573
  7.1721   7.1782   7.2429   7.2871   7.3075   7.3847   7.4887   7.6052
  7.6860   7.7197   7.8803   7.8926   7.9850   8.2610  35.9937  36.1791
 50.0383  50.1750  50.2340  50.2619
 
 Beta MOs
 -- Occupied --
-19.4039 -19.3815 -19.3504 -19.3502 -14.7827 -14.5855  -1.4627  -1.3428
 -1.2644  -1.1956  -0.8218  -0.7545  -0.7323  -0.7124  -0.6810  -0.6005
 -0.5791  -0.5576  -0.4866  -0.4753  -0.4629  -0.4452
 -- Virtual --
 -0.1598  -0.0233   0.0009   0.0391   0.0906   0.1274   0.1363   0.1405
  0.1677   0.1812   0.1901   0.2045   0.2290   0.2427   0.2532   0.2628
  0.2818   0.2956   0.3100   0.3249   0.3377   0.3514   0.3612   0.3622
  0.3752   0.3871   0.4174   0.4370   0.4596   0.4645   0.5205   0.5277
  0.7454   0.7693   0.8127   0.8256   0.8596   0.8680   0.9535   0.9644
  0.9788   1.0162   1.0321   1.0381   1.0572   1.0756   1.0932   1.1014
  1.1177   1.1336   1.1584   1.1817   1.1846   1.2052   1.2374   1.2489
  1.2700   1.3156   1.4249   1.5056   1.5255   1.5495   1.5738   1.5866
  1.6298   1.6451   1.6684   1.7060   1.7836   1.8178   1.8365   1.9190
  1.9557   2.0253   2.0488   2.1688   2.2038   2.2429   2.3405   2.3801
  2.4206   2.5115   2.5490   2.5673   2.7159   2.8154   3.5580   3.5694
  3.6030   3.6444   3.6516   3.6685   3.7005   3.7290   3.7655   3.8171
  3.8541   3.9477   4.0009   4.0076   4.0258   4.1137   4.2107   4.3963
  4.4304   4.4998   4.5238   4.5963   4.6390   4.6522   4.6936   4.7233
  4.7470   4.7671   4.8899   4.9783   4.9898   5.0190   5.0411   5.0453
  5.0555   5.0680   5.0793   5.1047   5.1214   5.1291   5.1482   5.1804
  5.1841   5.2046   5.2203   5.3302   5.3385   5.3875   5.4216   5.4324
  5.5019   5.5462   5.5789   5.6171   5.6989   5.7385   5.8612   6.0058
  6.0618   6.1050   6.4927   6.5536   6.7113   6.7216   6.7485   6.7685
  6.7806   6.7899   6.8176   6.8474   6.8669   6.8850   7.0278   7.0511
  7.1386   7.1714   7.1910   7.2036   7.2545   7.3090   7.3312   7.4064
  7.5131   7.6214   7.7156   7.7508   7.8883   7.9069   7.9953   8.2665
 36.0097  36.1789  50.0517  50.1929  50.2401  50.2620
 --------------------------------------------------------------
 
 -----------------------------------------------------------------
                    Cartesian Multipole Moments
 -----------------------------------------------------------------
    Charge (ESU x 10^10)
                -0.0000
    Dipole Moment (Debye)
         X      -0.2897      Y      -0.6538      Z       0.0743
       Tot       0.7190
    Quadrupole Moments (Debye-Ang)
        XX     -33.4861     XY      -0.4662     YY     -33.3865
        XZ      -1.8793     YZ      -1.3094     ZZ     -31.3553
    Octopole Moments (Debye-Ang^2)
       XXX     -34.6597    XXY     -12.5560    XYY     -11.7541
       YYY     -40.2920    XXZ     -97.3152    XYZ      -2.5840
       YYZ     -90.6086    XZZ     -17.5560    YZZ     -13.9478
       ZZZ    -269.8953
    Hexadecapole Moments (Debye-Ang^3)
      XXXX    -144.5554   XXXY     -52.1119   XXYY     -78.2806
      XYYY     -51.6402   YYYY    -325.5861   XXXZ     -95.8025
      XXYZ     -18.8792   XYYZ     -31.6114   YYYZ     -56.9704
      XXZZ    -322.8546   XYZZ     -27.2871   YYZZ    -316.5824
      XZZZ    -106.2316   YZZZ     -47.8354   ZZZZ   -1649.5263
 -----------------------------------------------------------------
Archival summary:
1\1\centos77-c5\SP\ProcedureUnspecified\BasisUnspecified\42(3)\shihchen\MonJul1315:29:392020MonJul1315:29:392020\0\\#,ProcedureUnspecified,BasisUnspecified,\\0,3\N\O,1,1.18792\O,1,1.20152,2,132.097\O,1,1.31228,2,123.57,3,-179.487,0\N,4,1.70512,1,112.228,2,2.42248,0\O,5,1.16526,4,90.8868,1,95.6949,0\\\@

 Total job time:  17.13s(wall), 92.03s(cpu) 
 Mon Jul 13 15:29:39 2020

        *************************************************************
        *                                                           *
        *  Thank you very much for using Q-Chem.  Have a nice day.  *
        *                                                           *
        *************************************************************


