                  Welcome to Q-Chem
     A Quantum Leap Into The Future Of Chemistry


 Q-Chem 5.3 (devel), Q-Chem, Inc., Pleasanton, CA (2020)

 Yihan Shao,  Zhengting Gan,  E. Epifanovsky,  A. T. B. Gilbert,  M. Wormit,  
 J. Kussmann,  A. W. Lange,  A. Behn,  Jia Deng,  Xintian Feng,  D. Ghosh,  
 M. Goldey,  P. R. Horn,  L. D. Jacobson,  I. Kaliman,  T. Kus,  A. Landau,  
 Jie Liu,  E. I. Proynov,  R. M. Richard,  R. P. Steele,  E. J. Sundstrom,  
 H. L. Woodcock III,  P. M. Zimmerman,  D. Zuev,  B. Alam,  B. Albrecht,  
 E. Alguire,  S. A. Baeppler,  D. Barton,  Z. Benda,  Y. A. Bernard,  
 E. J. Berquist,  K. B. Bravaya,  H. Burton,  K. Carter-Fenk,  D. Casanova,  
 Chun-Min Chang,  Yunqing Chen,  A. Chien,  K. D. Closser,  M. P. Coons,  
 S. Coriani,  S. Dasgupta,  A. L. Dempwolff,  M. Diedenhofen,  Hainam Do,  
 R. G. Edgar,  Po-Tung Fang,  S. Faraji,  S. Fatehi,  Qingguo Feng,  
 J. Fosso-Tande,  J. Gayvert,  Qinghui Ge,  A. Ghysels,  G. Gidofalvi,  
 J. Gomes,  J. Gonthier,  A. Gunina,  D. Hait,  M. W. D. Hanson-Heine,  
 P. H. P. Harbach,  A. W. Hauser,  M. F. Herbst,  J. E. Herr,  
 E. G. Hohenstein,  Z. C. Holden,  Kerwin Hui,  B. C. Huynh,  T.-C. Jagau,  
 Hyunjun Ji,  B. Kaduk,  K. Khistyaev,  Jaehoon Kim,  P. Klunzinger,  K. Koh,  
 D. Kosenkov,  L. Koulias,  T. Kowalczyk,  C. M. Krauter,  A. Kunitsa,  
 Ka Un Lao,  A. Laurent,  K. V. Lawler,  Joonho Lee,  D. Lefrancois,  
 S. Lehtola,  D. S. Levine,  Yi-Pei Li,  You-Sheng Lin,  Fenglai Liu,  
 Kuan-Yu Liu,  E. Livshits,  M. Loipersberger,  A. Luenser,  P. Manohar,  
 E. Mansoor,  S. F. Manzer,  Shan-Ping Mao,  Yuezhi Mao,  N. Mardirossian,  
 A. V. Marenich,  T. Markovich,  L. A. Martinez-Martinez,  S. A. Maurer,  
 N. J. Mayhall,  S. C. McKenzie,  J.-M. Mewes,  P. Morgante,  A. F. Morrison,  
 J. W. Mullinax,  K. Nanda,  T. S. Nguyen-Beck,  R. Olivares-Amaya,  
 K. J. Oosterbaan,  J. A. Parkhill,  S. K. Paul,  F. Pavosevic,  Zheng Pei,  
 T. M. Perrine,  F. Plasser,  P. Pokhilko,  S. Prager,  A. Prociuk,  
 E. Ramos,  B. Rana,  D. R. Rehn,  F. Rob,  M. Scheurer,  M. Schneider,  
 N. Sergueev,  S. M. Sharada,  S. Sharma,  D. W. Small,  T. Stauch,  
 C. J. Stein,  T. Stein,  Yu-Chuan Su,  S. P. Veccham,  Zhen Tao,  
 A. J. W. Thom,  A. Tkatchenko,  T. Tsuchimochi,  N. M. Tubman,  L. Vogt,  
 M. L. Vidal,  O. Vydrov,  M. A. Watson,  J. Wenzel,  M. de Wergifosse,  
 T. A. Wesolowski,  A. White,  J. Witte,  A. Yamada,  Jun Yang,  K. Yao,  
 S. Yeganeh,  S. R. Yost,  Zhi-Qiang You,  A. Zech,  Igor Ying Zhang,  
 Xing Zhang,  Yan Zhao,  Ying Zhu,  B. R. Brooks,  G. K. L. Chan,  
 C. J. Cramer,  M. S. Gordon,  W. J. Hehre,  A. Klamt,  M. W. Schmidt,  
 C. D. Sherrill,  D. G. Truhlar,  A. Aspuru-Guzik,  R. Baer,  A. T. Bell,  
 N. A. Besley,  Jeng-Da Chai,  A. E. DePrince, III,  R. A. DiStasio Jr.,  
 A. Dreuw,  B. D. Dunietz,  T. R. Furlani,  Chao-Ping Hsu,  Yousung Jung,  
 Jing Kong,  D. S. Lambrecht,  WanZhen Liang,  C. Ochsenfeld,  
 V. A. Rassolov,  L. V. Slipchenko,  J. E. Subotnik,  T. Van Voorhis,  
 J. M. Herbert,  A. I. Krylov,  P. M. W. Gill,  M. Head-Gordon

 Contributors to earlier versions of Q-Chem not listed above: 
 R. D. Adamson,  B. Austin,  J. Baker,  G. J. O. Beran,  K. Brandhorst,  
 S. T. Brown,  E. F. C. Byrd,  A. K. Chakraborty,  C.-L. Cheng,  
 Siu Hung Chien,  D. M. Chipman,  D. L. Crittenden,  H. Dachsel,  
 R. J. Doerksen,  A. D. Dutoi,  L. Fusti-Molnar,  W. A. Goddard III,  
 A. Golubeva-Zadorozhnaya,  S. R. Gwaltney,  G. Hawkins,  A. Heyden,  
 S. Hirata,  G. Kedziora,  F. J. Keil,  C. Kelley,  Jihan Kim,  R. A. King,  
 R. Z. Khaliullin,  P. P. Korambath,  W. Kurlancheek,  A. M. Lee,  M. S. Lee,  
 S. V. Levchenko,  Ching Yeh Lin,  D. Liotard,  R. C. Lochan,  I. Lotan,  
 P. E. Maslen,  N. Nair,  D. P. O'Neill,  D. Neuhauser,  E. Neuscamman,  
 C. M. Oana,  R. Olson,  B. Peters,  R. Peverati,  P. A. Pieniazek,  
 Y. M. Rhee,  J. Ritchie,  M. A. Rohrdanz,  E. Rosta,  N. J. Russ,  
 H. F. Schaefer III,  N. E. Schultz,  N. Shenvi,  A. C. Simmonett,  A. Sodt,  
 D. Stuck,  K. S. Thanthiriwatte,  V. Vanovschi,  Tao Wang,  A. Warshel,  
 C. F. Williams,  Q. Wu,  X. Xu,  W. Zhang

 Please cite Q-Chem as follows:
 Y. Shao et al., Mol. Phys. 113, 184-215 (2015)
 DOI: 10.1080/00268976.2014.952696

 Q-Chem 5.3.0 for Intel X86 EM64T Linux

 Parts of Q-Chem use Armadillo 9.800.1 (Horizon Scraper).
 http://arma.sourceforge.net/

 Q-Chem begins on Mon Jul 13 15:25:08 2020  

Host: centos77-c5
0

     Scratch files written to /tmp/29025.centos77-h1/qchem126090//
Processing $rem in /opt/qchem-5.3.0-intel2020u1//config/preferences:
Processing $rem in /home/shihchengli/.qchemrc:

Checking the input file for inconsistencies... 	...done.

--------------------------------------------------------------
User input:
--------------------------------------------------------------
$rem
   JOBTYPE  sp
   EXCHANGE   omegaB97X-D
   BASIS   6-311+G(2df,2pd)
   UNRESTRICTED   True
   max_scf_cycles   250
   geom_opt_max_cycles   1500
   basis2 6-31G*
   scf_algorithm rca_diis
   SYM_IGNORE  TRUE
   print_input   true
   geom_opt_dmax   80
   pop_mulliken false
   XC_GRID 000075000302
$end

$molecule
0 3
N       0.7486028975     1.2541164425     2.4803161596
O       0.3152151159     2.1533379138     1.8335502301
O       1.7282583946     1.1402322361     3.1309211358
N       -0.0517920431     -1.2199980199     3.1365360784
O       -0.5869324461     -1.4205776605     4.1622649312
O       -0.2083607886     0.1878781979     2.3567113549
$end
--------------------------------------------------------------
 ----------------------------------------------------------------
             Standard Nuclear Orientation (Angstroms)
    I     Atom           X                Y                Z
 ----------------------------------------------------------------
    1      N       0.7486028975     1.2541164425     2.4803161596
    2      O       0.3152151159     2.1533379138     1.8335502301
    3      O       1.7282583946     1.1402322361     3.1309211358
    4      N      -0.0517920431    -1.2199980199     3.1365360784
    5      O      -0.5869324461    -1.4205776605     4.1622649312
    6      O      -0.2083607886     0.1878781979     2.3567113549
 ----------------------------------------------------------------
 Nuclear Repulsion Energy =         228.16395382 hartrees
 There are       24 alpha and       22 beta electrons
 Requested basis set is 6-311+G(2df,2pd)
 There are 48 shells and 204 basis functions

 Total QAlloc Memory Limit   2000 MB
 Mega-Array Size       188 MB
 MEM_STATIC part       192 MB

                       Distance Matrix (Angstroms)
             N (  1)   O (  2)   O (  3)   N (  4)   O (  5)
   O (  2)  1.189424
   O (  3)  1.181517  2.169388
   N (  4)  2.681883  3.634812  2.956230
   O (  5)  3.430247  4.360006  3.602988  1.174192
   O (  6)  1.438027  2.100205  2.292787  1.617021  2.447544
 
 A cutoff of  1.0D-09 yielded   1009 shell pairs
 There are     18771 function pairs (     24587 Cartesian)
 Smallest overlap matrix eigenvalue = 7.70E-04

 Scale SEOQF with 1.000000e-01/1.000000e-01/1.000000e-01

 Standard Electronic Orientation quadrupole field applied
 Nucleus-field energy     =    -0.0000000357 hartrees
 Requested basis set is 6-31G(d)
 There are 24 shells and 84 basis functions
 A cutoff of  1.0D-09 yielded    262 shell pairs
 There are      3468 function pairs (      3990 Cartesian)
 Smallest overlap matrix eigenvalue = 4.89E-03
 Guess from superposition of atomic densities
 Warning:  Energy on first SCF cycle will be non-variational
 SAD guess density has 46.000000 electrons
 Long-range K will be added via erf
 Coulomb attenuation parameter = 0.2 bohr**(-1)
 An unrestricted hybrid HF-DFT SCF calculation will be
 performed using Relaxed Constraint Minimization + Pulay DIIS
 Exchange:     0.2220 Hartree-Fock + 1.0000 wB97X-D + LR-HF
 Correlation:  1.0000 wB97X-D
 Using Euler-Maclaurin-Lebedev (75,302) quadrature formula
 Dispersion:   Grimme D
 SCF converges when DIIS error is below 1.0E-04
 using 6 threads for integral computing
 -------------------------------------------------------
 OpenMP Integral computing Module                
 Release: version 1.0, May 2013, Q-Chem Inc. Pittsburgh 
 -------------------------------------------------------
 using 6 threads for integral computing
 -------------------------------------------------------
 OpenMP Integral computing Module                
 Release: version 1.0, May 2013, Q-Chem Inc. Pittsburgh 
 -------------------------------------------------------
 ---------------------------------------
  Cycle       Energy         DIIS Error
 ---------------------------------------
    1    -411.0135076662      8.80E-02
    2    -409.6571033322      1.94E-02
    3    -409.7599600690      4.42E-03
    4    -409.9067611751      4.67E-03
    5    -409.9129636588      6.59E-04 Done RCA. Switching to DIIS
    6    -409.9212496204      5.72E-04
    7    -409.9216686577      1.08E-04
    8    -409.9217467884      5.75E-05 Convergence criterion met
 ---------------------------------------
 <S^2> = 2.0159
 SCF time:  CPU 14.34 s  wall 2.41 s
 SCF   energy in the small basis set = -409.92174679
 Total energy in the small basis set = -409.92174679
 ----------------------------------------------------
  Cycle       Energy    
 ----------------------------------------------------
    1     -41.7450834879     -4.17E+01
 Long-range K will be added via erf
 Coulomb attenuation parameter = 0.2 bohr**(-1)
 An unrestricted hybrid HF-DFT SCF calculation will be
 performed using Relaxed Constraint Minimization + Pulay DIIS
 Exchange:     0.2220 Hartree-Fock + 1.0000 wB97X-D + LR-HF
 Correlation:  1.0000 wB97X-D
 Using Euler-Maclaurin-Lebedev (75,302) quadrature formula
 Dispersion:   Grimme D
 SCF converges when DIIS error is below 1.0E-05
 Basis2 calculation detected. Using small basis as guess for larger.
 SCFMinFind is unable to tell whether the solution found is close.
 Resetting ReadMinima to 0 and attempting to follow guess.
 SCFMinFind following SCF Guess.
 using 6 threads for integral computing
 -------------------------------------------------------
 OpenMP Integral computing Module                
 Release: version 1.0, May 2013, Q-Chem Inc. Pittsburgh 
 -------------------------------------------------------
 using 6 threads for integral computing
 -------------------------------------------------------
 OpenMP Integral computing Module                
 Release: version 1.0, May 2013, Q-Chem Inc. Pittsburgh 
 -------------------------------------------------------
 ---------------------------------------
  Cycle       Energy         DIIS Error
 ---------------------------------------
    1    -410.0107811091      8.03E-03
    2    -410.0177472080      4.25E-03
    3    -410.0397527140      1.20E-03
    4    -410.0709473115      1.18E-03
    5    -410.0733950780      1.42E-04 Done RCA. Switching to DIIS
    6    -410.0770227647      1.42E-04
    7    -410.0771596356      5.34E-05
    8    -410.0772266211      1.99E-05
    9    -410.0772484186      1.10E-05
   10    -410.0772560968      5.49E-06 Convergence criterion met
 ---------------------------------------
 <S^2> = 2.0182
 SCF time:  CPU 62.76 s  wall 10.49 s
 SCF   energy in the final basis set = -410.07725610
 Total energy in the final basis set = -410.07725610
 
 --------------------------------------------------------------
 
                    Orbital Energies (a.u.)
 --------------------------------------------------------------
 
 Alpha MOs
 -- Occupied --
-19.4064 -19.3960 -19.3551 -19.3550 -14.7757 -14.6205  -1.4455  -1.3630
 -1.2658  -1.2002  -0.8827  -0.7744  -0.7226  -0.7189  -0.6840  -0.6525
 -0.6302  -0.6236  -0.5080  -0.4943  -0.4685  -0.4634  -0.4334  -0.3397
 -- Virtual --
 -0.0269   0.0081   0.0774   0.1137   0.1225   0.1339   0.1374   0.1681
  0.1775   0.1861   0.2248   0.2421   0.2446   0.2598   0.2700   0.2870
  0.3006   0.3250   0.3372   0.3443   0.3511   0.3605   0.3723   0.3920
  0.3984   0.4311   0.4477   0.4640   0.4916   0.5272   0.7433   0.7692
  0.8024   0.8264   0.8695   0.8783   0.9322   0.9427   0.9862   1.0143
  1.0293   1.0461   1.0615   1.0692   1.0786   1.0992   1.1017   1.1191
  1.1359   1.1442   1.1562   1.1679   1.2321   1.2525   1.2657   1.3711
  1.4017   1.4985   1.5240   1.5370   1.5579   1.5709   1.5874   1.6135
  1.6366   1.6637   1.7162   1.7889   1.8229   1.8777   1.9106   1.9499
  1.9813   2.1134   2.1743   2.2363   2.2994   2.3807   2.4471   2.4913
  2.5310   2.5663   2.6655   2.7891   3.4886   3.5377   3.6004   3.6112
  3.6322   3.6549   3.6624   3.7155   3.7279   3.7748   3.7914   3.8799
  3.9534   3.9800   4.0204   4.0714   4.1373   4.4188   4.4483   4.4876
  4.5120   4.5803   4.6505   4.6685   4.6884   4.7171   4.7407   4.7800
  4.8376   4.9211   4.9968   5.0050   5.0239   5.0251   5.0367   5.0410
  5.0598   5.0721   5.0834   5.0974   5.1206   5.1419   5.1481   5.1692
  5.2005   5.2759   5.3130   5.3751   5.4054   5.4320   5.4539   5.5068
  5.5201   5.5419   5.6169   5.6592   5.8413   5.8579   5.9283   6.1503
  6.4222   6.5346   6.6270   6.6322   6.6930   6.7252   6.7421   6.7579
  6.7814   6.8153   6.8616   6.9190   6.9217   6.9673   7.0995   7.1079
  7.1610   7.1636   7.2065   7.2454   7.2696   7.3633   7.4121   7.5328
  7.6859   7.7177   7.8026   7.8461   7.9259   8.2776  35.9010  36.1185
 49.9703  50.1591  50.2307  50.2553
 
 Beta MOs
 -- Occupied --
-19.3940 -19.3779 -19.3554 -19.3524 -14.7753 -14.6024  -1.4412  -1.3243
 -1.2626  -1.1676  -0.8409  -0.7448  -0.7168  -0.7024  -0.6757  -0.5938
 -0.5800  -0.5544  -0.4782  -0.4725  -0.4645  -0.4508
 -- Virtual --
 -0.1469  -0.0241  -0.0122   0.0551   0.0874   0.1212   0.1344   0.1410
  0.1440   0.1706   0.1812   0.1904   0.2256   0.2462   0.2477   0.2614
  0.2723   0.2900   0.3085   0.3263   0.3382   0.3462   0.3530   0.3635
  0.3740   0.3983   0.4091   0.4375   0.4518   0.4678   0.5081   0.5332
  0.7529   0.7744   0.8164   0.8453   0.8769   0.8936   0.9351   0.9497
  0.9972   1.0255   1.0342   1.0620   1.0732   1.0789   1.0897   1.1098
  1.1196   1.1308   1.1494   1.1564   1.1657   1.1739   1.2455   1.2632
  1.2782   1.3790   1.4183   1.5137   1.5284   1.5420   1.5669   1.5810
  1.6010   1.6341   1.6560   1.6854   1.7221   1.7969   1.8305   1.8883
  1.9150   1.9675   1.9962   2.1274   2.1875   2.2490   2.3149   2.3897
  2.4593   2.5079   2.5333   2.5726   2.6740   2.7934   3.5125   3.5745
  3.6128   3.6296   3.6479   3.6583   3.6764   3.7266   3.7483   3.8060
  3.8546   3.8948   3.9788   4.0016   4.0224   4.0878   4.1509   4.4213
  4.4506   4.4902   4.5199   4.6114   4.6549   4.7110   4.7212   4.7381
  4.7685   4.8061   4.8885   4.9695   5.0126   5.0206   5.0389   5.0414
  5.0533   5.0665   5.0790   5.0876   5.0922   5.1197   5.1266   5.1557
  5.1873   5.2032   5.2134   5.3009   5.3306   5.3817   5.4209   5.4478
  5.4679   5.5242   5.5359   5.5632   5.6349   5.6789   5.8476   5.8627
  5.9493   6.1735   6.4407   6.5375   6.6452   6.6731   6.7233   6.7609
  6.7863   6.7941   6.8063   6.8227   6.8673   6.9211   6.9499   6.9850
  7.1138   7.1317   7.1630   7.2015   7.2309   7.2661   7.2795   7.3708
  7.4389   7.5394   7.7145   7.7400   7.8179   7.8541   7.9430   8.2805
 35.9228  36.1191  49.9832  50.1760  50.2333  50.2551
 --------------------------------------------------------------
 
 -----------------------------------------------------------------
                    Cartesian Multipole Moments
 -----------------------------------------------------------------
    Charge (ESU x 10^10)
                -0.0000
    Dipole Moment (Debye)
         X      -0.0699      Y      -0.6000      Z       0.0944
       Tot       0.6114
    Quadrupole Moments (Debye-Ang)
        XX     -33.1956     XY      -0.7616     YY     -33.1615
        XZ      -1.3336     YZ      -0.2551     ZZ     -31.9935
    Octopole Moments (Debye-Ang^2)
       XXX     -34.2453    XXY     -12.8273    XYY     -11.3128
       YYY     -40.3075    XXZ     -96.5416    XYZ      -3.6486
       YYZ     -91.3790    XZZ     -16.0189    YZZ      -7.5244
       ZZZ    -275.8060
    Hexadecapole Moments (Debye-Ang^3)
      XXXX    -157.7897   XXXY     -73.9342   XXYY     -90.8533
      XYYY     -74.4827   YYYY    -383.2447   XXXZ     -88.0304
      XXYZ     -13.7236   XYYZ     -27.4489   YYYZ     -34.3472
      XXZZ    -326.1015   XYZZ     -38.1039   YYZZ    -338.8438
      XZZZ     -94.6566   YZZZ       3.0065   ZZZZ   -1705.0374
 -----------------------------------------------------------------
Archival summary:
1\1\centos77-c5\SP\ProcedureUnspecified\BasisUnspecified\42(3)\shihchen\MonJul1315:25:242020MonJul1315:25:242020\0\\#,ProcedureUnspecified,BasisUnspecified,\\0,3\N\O,1,1.18152\O,1,1.18942,2,132.408\O,1,1.43803,2,121.846,3,-179.473,0\N,4,1.61702,1,122.661,2,2.41128,0\O,5,1.17419,4,121.728,1,95.6949,0\\\@

 Total job time:  15.17s(wall), 81.14s(cpu) 
 Mon Jul 13 15:25:24 2020

        *************************************************************
        *                                                           *
        *  Thank you very much for using Q-Chem.  Have a nice day.  *
        *                                                           *
        *************************************************************


