                  Welcome to Q-Chem
     A Quantum Leap Into The Future Of Chemistry


 Q-Chem 5.3 (devel), Q-Chem, Inc., Pleasanton, CA (2020)

 Yihan Shao,  Zhengting Gan,  E. Epifanovsky,  A. T. B. Gilbert,  M. Wormit,  
 J. Kussmann,  A. W. Lange,  A. Behn,  Jia Deng,  Xintian Feng,  D. Ghosh,  
 M. Goldey,  P. R. Horn,  L. D. Jacobson,  I. Kaliman,  T. Kus,  A. Landau,  
 Jie Liu,  E. I. Proynov,  R. M. Richard,  R. P. Steele,  E. J. Sundstrom,  
 H. L. Woodcock III,  P. M. Zimmerman,  D. Zuev,  B. Alam,  B. Albrecht,  
 E. Alguire,  S. A. Baeppler,  D. Barton,  Z. Benda,  Y. A. Bernard,  
 E. J. Berquist,  K. B. Bravaya,  H. Burton,  K. Carter-Fenk,  D. Casanova,  
 Chun-Min Chang,  Yunqing Chen,  A. Chien,  K. D. Closser,  M. P. Coons,  
 S. Coriani,  S. Dasgupta,  A. L. Dempwolff,  M. Diedenhofen,  Hainam Do,  
 R. G. Edgar,  Po-Tung Fang,  S. Faraji,  S. Fatehi,  Qingguo Feng,  
 J. Fosso-Tande,  J. Gayvert,  Qinghui Ge,  A. Ghysels,  G. Gidofalvi,  
 J. Gomes,  J. Gonthier,  A. Gunina,  D. Hait,  M. W. D. Hanson-Heine,  
 P. H. P. Harbach,  A. W. Hauser,  M. F. Herbst,  J. E. Herr,  
 E. G. Hohenstein,  Z. C. Holden,  Kerwin Hui,  B. C. Huynh,  T.-C. Jagau,  
 Hyunjun Ji,  B. Kaduk,  K. Khistyaev,  Jaehoon Kim,  P. Klunzinger,  K. Koh,  
 D. Kosenkov,  L. Koulias,  T. Kowalczyk,  C. M. Krauter,  A. Kunitsa,  
 Ka Un Lao,  A. Laurent,  K. V. Lawler,  Joonho Lee,  D. Lefrancois,  
 S. Lehtola,  D. S. Levine,  Yi-Pei Li,  You-Sheng Lin,  Fenglai Liu,  
 Kuan-Yu Liu,  E. Livshits,  M. Loipersberger,  A. Luenser,  P. Manohar,  
 E. Mansoor,  S. F. Manzer,  Shan-Ping Mao,  Yuezhi Mao,  N. Mardirossian,  
 A. V. Marenich,  T. Markovich,  L. A. Martinez-Martinez,  S. A. Maurer,  
 N. J. Mayhall,  S. C. McKenzie,  J.-M. Mewes,  P. Morgante,  A. F. Morrison,  
 J. W. Mullinax,  K. Nanda,  T. S. Nguyen-Beck,  R. Olivares-Amaya,  
 K. J. Oosterbaan,  J. A. Parkhill,  S. K. Paul,  F. Pavosevic,  Zheng Pei,  
 T. M. Perrine,  F. Plasser,  P. Pokhilko,  S. Prager,  A. Prociuk,  
 E. Ramos,  B. Rana,  D. R. Rehn,  F. Rob,  M. Scheurer,  M. Schneider,  
 N. Sergueev,  S. M. Sharada,  S. Sharma,  D. W. Small,  T. Stauch,  
 C. J. Stein,  T. Stein,  Yu-Chuan Su,  S. P. Veccham,  Zhen Tao,  
 A. J. W. Thom,  A. Tkatchenko,  T. Tsuchimochi,  N. M. Tubman,  L. Vogt,  
 M. L. Vidal,  O. Vydrov,  M. A. Watson,  J. Wenzel,  M. de Wergifosse,  
 T. A. Wesolowski,  A. White,  J. Witte,  A. Yamada,  Jun Yang,  K. Yao,  
 S. Yeganeh,  S. R. Yost,  Zhi-Qiang You,  A. Zech,  Igor Ying Zhang,  
 Xing Zhang,  Yan Zhao,  Ying Zhu,  B. R. Brooks,  G. K. L. Chan,  
 C. J. Cramer,  M. S. Gordon,  W. J. Hehre,  A. Klamt,  M. W. Schmidt,  
 C. D. Sherrill,  D. G. Truhlar,  A. Aspuru-Guzik,  R. Baer,  A. T. Bell,  
 N. A. Besley,  Jeng-Da Chai,  A. E. DePrince, III,  R. A. DiStasio Jr.,  
 A. Dreuw,  B. D. Dunietz,  T. R. Furlani,  Chao-Ping Hsu,  Yousung Jung,  
 Jing Kong,  D. S. Lambrecht,  WanZhen Liang,  C. Ochsenfeld,  
 V. A. Rassolov,  L. V. Slipchenko,  J. E. Subotnik,  T. Van Voorhis,  
 J. M. Herbert,  A. I. Krylov,  P. M. W. Gill,  M. Head-Gordon

 Contributors to earlier versions of Q-Chem not listed above: 
 R. D. Adamson,  B. Austin,  J. Baker,  G. J. O. Beran,  K. Brandhorst,  
 S. T. Brown,  E. F. C. Byrd,  A. K. Chakraborty,  C.-L. Cheng,  
 Siu Hung Chien,  D. M. Chipman,  D. L. Crittenden,  H. Dachsel,  
 R. J. Doerksen,  A. D. Dutoi,  L. Fusti-Molnar,  W. A. Goddard III,  
 A. Golubeva-Zadorozhnaya,  S. R. Gwaltney,  G. Hawkins,  A. Heyden,  
 S. Hirata,  G. Kedziora,  F. J. Keil,  C. Kelley,  Jihan Kim,  R. A. King,  
 R. Z. Khaliullin,  P. P. Korambath,  W. Kurlancheek,  A. M. Lee,  M. S. Lee,  
 S. V. Levchenko,  Ching Yeh Lin,  D. Liotard,  R. C. Lochan,  I. Lotan,  
 P. E. Maslen,  N. Nair,  D. P. O'Neill,  D. Neuhauser,  E. Neuscamman,  
 C. M. Oana,  R. Olson,  B. Peters,  R. Peverati,  P. A. Pieniazek,  
 Y. M. Rhee,  J. Ritchie,  M. A. Rohrdanz,  E. Rosta,  N. J. Russ,  
 H. F. Schaefer III,  N. E. Schultz,  N. Shenvi,  A. C. Simmonett,  A. Sodt,  
 D. Stuck,  K. S. Thanthiriwatte,  V. Vanovschi,  Tao Wang,  A. Warshel,  
 C. F. Williams,  Q. Wu,  X. Xu,  W. Zhang

 Please cite Q-Chem as follows:
 Y. Shao et al., Mol. Phys. 113, 184-215 (2015)
 DOI: 10.1080/00268976.2014.952696

 Q-Chem 5.3.0 for Intel X86 EM64T Linux

 Parts of Q-Chem use Armadillo 9.800.1 (Horizon Scraper).
 http://arma.sourceforge.net/

 Q-Chem begins on Mon Jul 13 15:40:25 2020  

Host: centos77-c5
0

     Scratch files written to /tmp/29025.centos77-h1/qchem7468//
Processing $rem in /opt/qchem-5.3.0-intel2020u1//config/preferences:
Processing $rem in /home/shihchengli/.qchemrc:

Checking the input file for inconsistencies... 	...done.

--------------------------------------------------------------
User input:
--------------------------------------------------------------
$rem
   JOBTYPE  sp
   EXCHANGE   omegaB97X-D
   BASIS   6-311+G(2df,2pd)
   UNRESTRICTED   True
   max_scf_cycles   250
   geom_opt_max_cycles   1500
   basis2 6-31G*
   scf_algorithm rca_diis
   SYM_IGNORE  TRUE
   print_input   true
   geom_opt_dmax   80
   pop_mulliken false
   XC_GRID 000075000302
$end

$molecule
0 3
N       0.3411782346     1.5006162078     3.0643366619
O       0.1304488399     2.1910564280     1.9604875655
O       2.1645280233     0.9540354582     2.5108087897
N       0.3131249734     -1.1006834132     3.4887118427
O       -1.1574071939     -1.3649453265     4.0334867599
O       0.1531182528     -0.0850902444     2.0424682703
$end
--------------------------------------------------------------
 ----------------------------------------------------------------
             Standard Nuclear Orientation (Angstroms)
    I     Atom           X                Y                Z
 ----------------------------------------------------------------
    1      N       0.3411782346     1.5006162078     3.0643366619
    2      O       0.1304488399     2.1910564280     1.9604875655
    3      O       2.1645280233     0.9540354582     2.5108087897
    4      N       0.3131249734    -1.1006834132     3.4887118427
    5      O      -1.1574071939    -1.3649453265     4.0334867599
    6      O       0.1531182528    -0.0850902444     2.0424682703
 ----------------------------------------------------------------
 Nuclear Repulsion Energy =         196.82816563 hartrees
 There are       24 alpha and       22 beta electrons
 Requested basis set is 6-311+G(2df,2pd)
 There are 48 shells and 204 basis functions

 Total QAlloc Memory Limit   2000 MB
 Mega-Array Size       188 MB
 MEM_STATIC part       192 MB

                       Distance Matrix (Angstroms)
             N (  1)   O (  2)   O (  3)   N (  4)   O (  5)
   O (  2)  1.318938
   O (  3)  1.982359  2.443471
   N (  4)  2.635838  3.633785  2.933574
   O (  5)  3.375863  4.312893  4.327987  1.590308
   O (  6)  1.895797  2.277735  2.311903  1.774444  2.705487
 
 A cutoff of  1.0D-09 yielded    991 shell pairs
 There are     18427 function pairs (     24117 Cartesian)
 Smallest overlap matrix eigenvalue = 7.43E-04

 Scale SEOQF with 1.000000e-01/1.000000e-01/1.000000e-01

 Standard Electronic Orientation quadrupole field applied
 Nucleus-field energy     =    -0.0000000345 hartrees
 Requested basis set is 6-31G(d)
 There are 24 shells and 84 basis functions
 A cutoff of  1.0D-09 yielded    254 shell pairs
 There are      3392 function pairs (      3895 Cartesian)
 Smallest overlap matrix eigenvalue = 1.10E-02
 Guess from superposition of atomic densities
 Warning:  Energy on first SCF cycle will be non-variational
 SAD guess density has 46.000000 electrons
 Long-range K will be added via erf
 Coulomb attenuation parameter = 0.2 bohr**(-1)
 An unrestricted hybrid HF-DFT SCF calculation will be
 performed using Relaxed Constraint Minimization + Pulay DIIS
 Exchange:     0.2220 Hartree-Fock + 1.0000 wB97X-D + LR-HF
 Correlation:  1.0000 wB97X-D
 Using Euler-Maclaurin-Lebedev (75,302) quadrature formula
 Dispersion:   Grimme D
 SCF converges when DIIS error is below 1.0E-04
 using 6 threads for integral computing
 -------------------------------------------------------
 OpenMP Integral computing Module                
 Release: version 1.0, May 2013, Q-Chem Inc. Pittsburgh 
 -------------------------------------------------------
 using 6 threads for integral computing
 -------------------------------------------------------
 OpenMP Integral computing Module                
 Release: version 1.0, May 2013, Q-Chem Inc. Pittsburgh 
 -------------------------------------------------------
 ---------------------------------------
  Cycle       Energy         DIIS Error
 ---------------------------------------
    1    -408.7616946524      4.19E-02
    2    -408.8188924164      2.62E-02
    3    -409.0364002473      1.19E-02
    4    -409.0967286200      5.70E-03
    5    -409.2541996721      1.12E-02
    6    -409.3006551598      4.71E-03
    7    -409.3891340957      8.77E-03
    8    -409.4219395452      1.94E-03
    9    -409.5489311235      3.87E-03
   10    -409.5540676078      1.15E-03
   11    -409.5706421269      1.49E-03
   12    -409.5734345663      1.43E-03
   13    -409.5772699251      2.04E-03
   14    -409.5797787663      5.88E-04 Done RCA. Switching to DIIS
   15    -409.5886076900      1.34E-03
   16    -409.5980412564      4.49E-04
   17    -409.6004887653      3.94E-04
   18    -409.6025499736      2.98E-04
   19    -409.6048034450      1.54E-04
   20    -409.6061067772      1.63E-04
   21    -409.6090078054      1.64E-04
   22    -409.6120413662      2.09E-04
   23    -409.6108173464      1.97E-04
   24    -409.6101752775      2.06E-04
   25    -409.6087316249      2.19E-04
   26    -409.6077146244      2.23E-04
   27    -409.6053849897      2.24E-04
   28    -409.6055155042      9.85E-05 Convergence criterion met
 ---------------------------------------
 <S^2> = 2.2485
 SCF time:  CPU 45.23 s  wall 7.59 s
 SCF   energy in the small basis set = -409.60551550
 Total energy in the small basis set = -409.60551550
 ----------------------------------------------------
  Cycle       Energy    
 ----------------------------------------------------
    1     -41.0317250571     -4.10E+01
 Long-range K will be added via erf
 Coulomb attenuation parameter = 0.2 bohr**(-1)
 An unrestricted hybrid HF-DFT SCF calculation will be
 performed using Relaxed Constraint Minimization + Pulay DIIS
 Exchange:     0.2220 Hartree-Fock + 1.0000 wB97X-D + LR-HF
 Correlation:  1.0000 wB97X-D
 Using Euler-Maclaurin-Lebedev (75,302) quadrature formula
 Dispersion:   Grimme D
 SCF converges when DIIS error is below 1.0E-05
 Basis2 calculation detected. Using small basis as guess for larger.
 SCFMinFind is unable to tell whether the solution found is close.
 Resetting ReadMinima to 0 and attempting to follow guess.
 SCFMinFind following SCF Guess.
 using 6 threads for integral computing
 -------------------------------------------------------
 OpenMP Integral computing Module                
 Release: version 1.0, May 2013, Q-Chem Inc. Pittsburgh 
 -------------------------------------------------------
 using 6 threads for integral computing
 -------------------------------------------------------
 OpenMP Integral computing Module                
 Release: version 1.0, May 2013, Q-Chem Inc. Pittsburgh 
 -------------------------------------------------------
 ---------------------------------------
  Cycle       Energy         DIIS Error
 ---------------------------------------
    1    -409.6080896809      8.83E-03
    2    -409.2099219253      1.16E-02
    3    -409.3755493706      4.90E-03
    4    -409.4709639210      1.73E-03
    5    -409.6281740726      5.31E-03
    6    -409.6671114376      1.85E-03
    7    -409.6879288159      8.52E-04 Done RCA. Switching to DIIS
    8    -409.7221322149      2.61E-03
    9    -409.7489352891      2.71E-04
   10    -409.7496202055      1.44E-04
   11    -409.7500364436      1.04E-04
   12    -409.7504137962      1.11E-04
   13    -409.7507623301      9.13E-05
   14    -409.7510997017      4.99E-05
   15    -409.7513746849      1.43E-05
   16    -409.7517200104      1.10E-05
   17    -409.7520313502      1.53E-05
   18    -409.7518080392      1.34E-05
   19    -409.7515145621      2.10E-05
   20    -409.7513523790      1.81E-05
   21    -409.7511686655      7.92E-06 Convergence criterion met
 ---------------------------------------
 <S^2> = 2.1966
 SCF time:  CPU 114.36 s  wall 19.11 s
 SCF   energy in the final basis set = -409.75116867
 Total energy in the final basis set = -409.75116867
 
 --------------------------------------------------------------
 
                    Orbital Energies (a.u.)
 --------------------------------------------------------------
 
 Alpha MOs
 -- Occupied --
-19.4241 -19.4083 -19.3824 -19.3767 -14.7108 -14.6864  -1.2807  -1.1554
 -1.1349  -1.0835  -0.8567  -0.8465  -0.6339  -0.6130  -0.6031  -0.5762
 -0.5476  -0.5356  -0.5195  -0.4932  -0.4836  -0.4542  -0.4334  -0.4227
 -- Virtual --
 -0.1444  -0.1007  -0.0809  -0.0483   0.0333   0.1129   0.1231   0.1365
  0.1438   0.1794   0.1892   0.1942   0.2160   0.2336   0.2380   0.2577
  0.2664   0.2761   0.2872   0.2922   0.3249   0.3290   0.3391   0.3489
  0.3680   0.3963   0.4059   0.4202   0.4436   0.4840   0.7171   0.7746
  0.8115   0.8204   0.8394   0.8590   0.8932   0.9248   0.9427   0.9709
  0.9962   1.0173   1.0324   1.0454   1.0700   1.0929   1.1088   1.1264
  1.1338   1.1447   1.1537   1.1595   1.1765   1.1933   1.2213   1.2495
  1.2875   1.3507   1.4449   1.4602   1.4965   1.4991   1.5299   1.5467
  1.5701   1.5725   1.5962   1.6240   1.6343   1.6532   1.6584   1.6862
  1.7572   1.8526   1.8865   1.9295   2.0188   2.0346   2.1042   2.1502
  2.2954   2.3571   2.3601   2.4320   3.5023   3.5109   3.5447   3.5631
  3.5684   3.6063   3.6186   3.6479   3.6532   3.6907   3.7470   3.7525
  3.7798   3.7903   3.7997   3.8375   3.8774   3.9237   3.9443   4.2210
  4.6416   4.6757   4.7147   4.7561   4.7673   4.7811   4.7944   4.8221
  4.8567   4.8932   4.9156   4.9290   4.9326   4.9618   4.9687   4.9882
  4.9989   5.0021   5.0142   5.0181   5.0293   5.0322   5.0482   5.0586
  5.0691   5.0772   5.0775   5.0962   5.1272   5.1319   5.1476   5.1695
  5.1820   5.2037   5.2189   5.2375   5.2752   5.2839   5.3329   5.3905
  5.4313   5.4625   5.4876   5.6336   5.7010   5.8517   6.0663   6.1070
  6.1642   6.6207   6.6354   6.6928   6.7101   6.7427   6.7519   6.7546
  6.7943   6.8637   6.9486   6.9637   6.9777   6.9997   7.0509   7.0999
  7.1389   7.1673   7.2182   7.4878   7.5343   7.6509  35.2776  35.5596
 49.8262  49.8982  49.9572  49.9785
 
 Beta MOs
 -- Occupied --
-19.4113 -19.3832 -19.3795 -19.3587 -14.7142 -14.6896  -1.2848  -1.1316
 -1.0536  -0.9955  -0.8619  -0.8504  -0.6146  -0.6088  -0.5949  -0.5482
 -0.5238  -0.4904  -0.4360  -0.4269  -0.4157  -0.4058
 -- Virtual --
 -0.1533  -0.1361  -0.1197  -0.0812  -0.0732  -0.0394   0.0321   0.1135
  0.1233   0.1383   0.1487   0.1794   0.1912   0.1946   0.2197   0.2330
  0.2406   0.2620   0.2680   0.2812   0.2881   0.2920   0.3255   0.3353
  0.3422   0.3511   0.3688   0.3996   0.4099   0.4231   0.4453   0.4880
  0.7166   0.7781   0.8122   0.8282   0.8349   0.8556   0.9008   0.9299
  0.9544   0.9724   1.0016   1.0181   1.0412   1.0570   1.0735   1.0987
  1.1223   1.1404   1.1471   1.1564   1.1717   1.1754   1.2011   1.2068
  1.2379   1.2564   1.2949   1.3549   1.4668   1.4905   1.5170   1.5381
  1.5528   1.5703   1.5858   1.5930   1.6068   1.6345   1.6459   1.6666
  1.6727   1.7031   1.7789   1.8532   1.9216   1.9453   2.0224   2.0473
  2.1092   2.1706   2.3049   2.3622   2.3641   2.4408   3.4946   3.5039
  3.5377   3.5554   3.5616   3.5991   3.6168   3.6399   3.6485   3.6861
  3.7434   3.7469   3.7718   3.7810   3.7952   3.8268   3.8702   3.9161
  3.9405   4.2195   4.6455   4.6792   4.7104   4.7578   4.7654   4.7860
  4.8052   4.8281   4.8590   4.8965   4.9736   4.9822   5.0006   5.0064
  5.0183   5.0243   5.0362   5.0444   5.0669   5.0727   5.0742   5.0752
  5.0788   5.0845   5.0884   5.1041   5.1103   5.1233   5.1418   5.1443
  5.1851   5.2017   5.2239   5.2306   5.2631   5.2711   5.2952   5.3199
  5.3492   5.4043   5.4528   5.4655   5.4899   5.6504   5.7067   5.8638
  6.0665   6.1037   6.1642   6.7239   6.7321   6.7448   6.7485   6.7685
  6.7855   6.8155   6.8978   6.9048   6.9697   6.9807   7.0215   7.0325
  7.0821   7.1442   7.1563   7.2183   7.2535   7.5035   7.5477   7.6667
 35.2723  35.5542  49.8800  49.8989  49.9592  49.9920
 --------------------------------------------------------------
 
 -----------------------------------------------------------------
                    Cartesian Multipole Moments
 -----------------------------------------------------------------
    Charge (ESU x 10^10)
                -0.0000
    Dipole Moment (Debye)
         X       1.0622      Y       1.0864      Z       0.6354
       Tot       1.6469
    Quadrupole Moments (Debye-Ang)
        XX     -32.4489     XY      -0.4871     YY     -31.2714
        XZ       4.3650     YZ       4.7363     ZZ     -30.5120
    Octopole Moments (Debye-Ang^2)
       XXX     -28.0528    XXY      -8.4888    XYY      -7.5649
       YYY     -30.6661    XXZ     -91.6923    XYZ      -2.4526
       YYZ     -90.0277    XZZ       5.7245    YZZ       9.4601
       ZZZ    -278.2458
    Hexadecapole Moments (Debye-Ang^3)
      XXXX    -216.9609   XXXY     -62.9159   XXYY     -97.2358
      XYYY     -63.0837   YYYY    -379.9767   XXXZ     -43.6664
      XXYZ      -1.3765   XYYZ      -9.2509   YYYZ     -13.5567
      XXZZ    -321.5017   XYZZ     -33.6366   YYZZ    -348.1997
      XZZZ       2.8976   YZZZ      60.5372   ZZZZ   -1765.6745
 -----------------------------------------------------------------
Archival summary:
1\1\centos77-c5\SP\ProcedureUnspecified\BasisUnspecified\42(3)\shihchen\MonJul1315:40:542020MonJul1315:40:542020\0\\#,ProcedureUnspecified,BasisUnspecified,\\0,3\O\N,1,1.77444\O,2,1.59031,1,106.913\N,1,1.8958,2,91.7456,3,92.2299,0\O,4,1.31894,1,88.332,2,-176.301,0\O,4,1.98236,1,73.1486,2,89.7403,0\\\@

 Total job time:  28.87s(wall), 163.63s(cpu) 
 Mon Jul 13 15:40:54 2020

        *************************************************************
        *                                                           *
        *  Thank you very much for using Q-Chem.  Have a nice day.  *
        *                                                           *
        *************************************************************


