                  Welcome to Q-Chem
     A Quantum Leap Into The Future Of Chemistry


 Q-Chem 5.3 (devel), Q-Chem, Inc., Pleasanton, CA (2020)

 Yihan Shao,  Zhengting Gan,  E. Epifanovsky,  A. T. B. Gilbert,  M. Wormit,  
 J. Kussmann,  A. W. Lange,  A. Behn,  Jia Deng,  Xintian Feng,  D. Ghosh,  
 M. Goldey,  P. R. Horn,  L. D. Jacobson,  I. Kaliman,  T. Kus,  A. Landau,  
 Jie Liu,  E. I. Proynov,  R. M. Richard,  R. P. Steele,  E. J. Sundstrom,  
 H. L. Woodcock III,  P. M. Zimmerman,  D. Zuev,  B. Alam,  B. Albrecht,  
 E. Alguire,  S. A. Baeppler,  D. Barton,  Z. Benda,  Y. A. Bernard,  
 E. J. Berquist,  K. B. Bravaya,  H. Burton,  K. Carter-Fenk,  D. Casanova,  
 Chun-Min Chang,  Yunqing Chen,  A. Chien,  K. D. Closser,  M. P. Coons,  
 S. Coriani,  S. Dasgupta,  A. L. Dempwolff,  M. Diedenhofen,  Hainam Do,  
 R. G. Edgar,  Po-Tung Fang,  S. Faraji,  S. Fatehi,  Qingguo Feng,  
 J. Fosso-Tande,  J. Gayvert,  Qinghui Ge,  A. Ghysels,  G. Gidofalvi,  
 J. Gomes,  J. Gonthier,  A. Gunina,  D. Hait,  M. W. D. Hanson-Heine,  
 P. H. P. Harbach,  A. W. Hauser,  M. F. Herbst,  J. E. Herr,  
 E. G. Hohenstein,  Z. C. Holden,  Kerwin Hui,  B. C. Huynh,  T.-C. Jagau,  
 Hyunjun Ji,  B. Kaduk,  K. Khistyaev,  Jaehoon Kim,  P. Klunzinger,  K. Koh,  
 D. Kosenkov,  L. Koulias,  T. Kowalczyk,  C. M. Krauter,  A. Kunitsa,  
 Ka Un Lao,  A. Laurent,  K. V. Lawler,  Joonho Lee,  D. Lefrancois,  
 S. Lehtola,  D. S. Levine,  Yi-Pei Li,  You-Sheng Lin,  Fenglai Liu,  
 Kuan-Yu Liu,  E. Livshits,  M. Loipersberger,  A. Luenser,  P. Manohar,  
 E. Mansoor,  S. F. Manzer,  Shan-Ping Mao,  Yuezhi Mao,  N. Mardirossian,  
 A. V. Marenich,  T. Markovich,  L. A. Martinez-Martinez,  S. A. Maurer,  
 N. J. Mayhall,  S. C. McKenzie,  J.-M. Mewes,  P. Morgante,  A. F. Morrison,  
 J. W. Mullinax,  K. Nanda,  T. S. Nguyen-Beck,  R. Olivares-Amaya,  
 K. J. Oosterbaan,  J. A. Parkhill,  S. K. Paul,  F. Pavosevic,  Zheng Pei,  
 T. M. Perrine,  F. Plasser,  P. Pokhilko,  S. Prager,  A. Prociuk,  
 E. Ramos,  B. Rana,  D. R. Rehn,  F. Rob,  M. Scheurer,  M. Schneider,  
 N. Sergueev,  S. M. Sharada,  S. Sharma,  D. W. Small,  T. Stauch,  
 C. J. Stein,  T. Stein,  Yu-Chuan Su,  S. P. Veccham,  Zhen Tao,  
 A. J. W. Thom,  A. Tkatchenko,  T. Tsuchimochi,  N. M. Tubman,  L. Vogt,  
 M. L. Vidal,  O. Vydrov,  M. A. Watson,  J. Wenzel,  M. de Wergifosse,  
 T. A. Wesolowski,  A. White,  J. Witte,  A. Yamada,  Jun Yang,  K. Yao,  
 S. Yeganeh,  S. R. Yost,  Zhi-Qiang You,  A. Zech,  Igor Ying Zhang,  
 Xing Zhang,  Yan Zhao,  Ying Zhu,  B. R. Brooks,  G. K. L. Chan,  
 C. J. Cramer,  M. S. Gordon,  W. J. Hehre,  A. Klamt,  M. W. Schmidt,  
 C. D. Sherrill,  D. G. Truhlar,  A. Aspuru-Guzik,  R. Baer,  A. T. Bell,  
 N. A. Besley,  Jeng-Da Chai,  A. E. DePrince, III,  R. A. DiStasio Jr.,  
 A. Dreuw,  B. D. Dunietz,  T. R. Furlani,  Chao-Ping Hsu,  Yousung Jung,  
 Jing Kong,  D. S. Lambrecht,  WanZhen Liang,  C. Ochsenfeld,  
 V. A. Rassolov,  L. V. Slipchenko,  J. E. Subotnik,  T. Van Voorhis,  
 J. M. Herbert,  A. I. Krylov,  P. M. W. Gill,  M. Head-Gordon

 Contributors to earlier versions of Q-Chem not listed above: 
 R. D. Adamson,  B. Austin,  J. Baker,  G. J. O. Beran,  K. Brandhorst,  
 S. T. Brown,  E. F. C. Byrd,  A. K. Chakraborty,  C.-L. Cheng,  
 Siu Hung Chien,  D. M. Chipman,  D. L. Crittenden,  H. Dachsel,  
 R. J. Doerksen,  A. D. Dutoi,  L. Fusti-Molnar,  W. A. Goddard III,  
 A. Golubeva-Zadorozhnaya,  S. R. Gwaltney,  G. Hawkins,  A. Heyden,  
 S. Hirata,  G. Kedziora,  F. J. Keil,  C. Kelley,  Jihan Kim,  R. A. King,  
 R. Z. Khaliullin,  P. P. Korambath,  W. Kurlancheek,  A. M. Lee,  M. S. Lee,  
 S. V. Levchenko,  Ching Yeh Lin,  D. Liotard,  R. C. Lochan,  I. Lotan,  
 P. E. Maslen,  N. Nair,  D. P. O'Neill,  D. Neuhauser,  E. Neuscamman,  
 C. M. Oana,  R. Olson,  B. Peters,  R. Peverati,  P. A. Pieniazek,  
 Y. M. Rhee,  J. Ritchie,  M. A. Rohrdanz,  E. Rosta,  N. J. Russ,  
 H. F. Schaefer III,  N. E. Schultz,  N. Shenvi,  A. C. Simmonett,  A. Sodt,  
 D. Stuck,  K. S. Thanthiriwatte,  V. Vanovschi,  Tao Wang,  A. Warshel,  
 C. F. Williams,  Q. Wu,  X. Xu,  W. Zhang

 Please cite Q-Chem as follows:
 Y. Shao et al., Mol. Phys. 113, 184-215 (2015)
 DOI: 10.1080/00268976.2014.952696

 Q-Chem 5.3.0 for Intel X86 EM64T Linux

 Parts of Q-Chem use Armadillo 9.800.1 (Horizon Scraper).
 http://arma.sourceforge.net/

 Q-Chem begins on Mon Jul 13 15:48:45 2020  

Host: centos77-c5
0

     Scratch files written to /tmp/29025.centos77-h1/qchem24759//
Processing $rem in /opt/qchem-5.3.0-intel2020u1//config/preferences:
Processing $rem in /home/shihchengli/.qchemrc:

Checking the input file for inconsistencies... 	...done.

--------------------------------------------------------------
User input:
--------------------------------------------------------------
$rem
   JOBTYPE  sp
   EXCHANGE   omegaB97X-D
   BASIS   6-311+G(2df,2pd)
   UNRESTRICTED   True
   max_scf_cycles   250
   geom_opt_max_cycles   1500
   basis2 6-31G*
   scf_algorithm rca_diis
   SYM_IGNORE  TRUE
   print_input   true
   geom_opt_dmax   80
   pop_mulliken false
   XC_GRID 000075000302
$end

$molecule
0 3
N       0.6887558973     1.2036840317     2.4793843806
O       0.3681328060     2.1854494146     1.8721444023
O       1.6082819036     0.9809456582     3.1857195234
N       0.0621574130     -1.1488366441     3.1000929460
O       -0.5078402801     -1.3222919912     4.2210808404
O       -0.2744966096     0.1960386407     2.2418777972
$end
--------------------------------------------------------------
 ----------------------------------------------------------------
             Standard Nuclear Orientation (Angstroms)
    I     Atom           X                Y                Z
 ----------------------------------------------------------------
    1      N       0.6887558973     1.2036840317     2.4793843806
    2      O       0.3681328060     2.1854494146     1.8721444023
    3      O       1.6082819036     0.9809456582     3.1857195234
    4      N       0.0621574130    -1.1488366441     3.1000929460
    5      O      -0.5078402801    -1.3222919912     4.2210808404
    6      O      -0.2744966096     0.1960386407     2.2418777972
 ----------------------------------------------------------------
 Nuclear Repulsion Energy =         229.45910420 hartrees
 There are       24 alpha and       22 beta electrons
 Requested basis set is 6-311+G(2df,2pd)
 There are 48 shells and 204 basis functions

 Total QAlloc Memory Limit   2000 MB
 Mega-Array Size       188 MB
 MEM_STATIC part       192 MB

                       Distance Matrix (Angstroms)
             N (  1)   O (  2)   O (  3)   N (  4)   O (  5)
   O (  2)  1.198083
   O (  3)  1.180699  2.171239
   N (  4)  2.512421  3.566363  2.633212
   O (  5)  3.293312  4.311506  3.294670  1.269487
   O (  6)  1.414077  2.123071  2.247615  1.630509  2.505399
 
 A cutoff of  1.0D-09 yielded   1024 shell pairs
 There are     19100 function pairs (     25041 Cartesian)
 Smallest overlap matrix eigenvalue = 7.13E-04

 Scale SEOQF with 1.000000e-01/1.000000e-01/1.000000e-01

 Standard Electronic Orientation quadrupole field applied
 Nucleus-field energy     =    -0.0000000364 hartrees
 Requested basis set is 6-31G(d)
 There are 24 shells and 84 basis functions
 A cutoff of  1.0D-09 yielded    269 shell pairs
 There are      3538 function pairs (      4066 Cartesian)
 Smallest overlap matrix eigenvalue = 4.86E-03
 Guess from superposition of atomic densities
 Warning:  Energy on first SCF cycle will be non-variational
 SAD guess density has 46.000000 electrons
 Long-range K will be added via erf
 Coulomb attenuation parameter = 0.2 bohr**(-1)
 An unrestricted hybrid HF-DFT SCF calculation will be
 performed using Relaxed Constraint Minimization + Pulay DIIS
 Exchange:     0.2220 Hartree-Fock + 1.0000 wB97X-D + LR-HF
 Correlation:  1.0000 wB97X-D
 Using Euler-Maclaurin-Lebedev (75,302) quadrature formula
 Dispersion:   Grimme D
 SCF converges when DIIS error is below 1.0E-04
 using 6 threads for integral computing
 -------------------------------------------------------
 OpenMP Integral computing Module                
 Release: version 1.0, May 2013, Q-Chem Inc. Pittsburgh 
 -------------------------------------------------------
 using 6 threads for integral computing
 -------------------------------------------------------
 OpenMP Integral computing Module                
 Release: version 1.0, May 2013, Q-Chem Inc. Pittsburgh 
 -------------------------------------------------------
 ---------------------------------------
  Cycle       Energy         DIIS Error
 ---------------------------------------
    1    -410.8085100511      8.37E-02
    2    -409.6277353279      2.01E-02
    3    -409.7352519068      5.33E-03
    4    -409.8928868981      6.07E-03
    5    -409.9029782918      8.18E-04 Done RCA. Switching to DIIS
    6    -409.9161860737      8.13E-04
    7    -409.9168833091      1.90E-04
    8    -409.9170055090      8.74E-05 Convergence criterion met
 ---------------------------------------
 <S^2> = 2.0197
 SCF time:  CPU 14.06 s  wall 2.36 s
 SCF   energy in the small basis set = -409.91700551
 Total energy in the small basis set = -409.91700551
 ----------------------------------------------------
  Cycle       Energy    
 ----------------------------------------------------
    1     -41.6708949753     -4.17E+01
 Long-range K will be added via erf
 Coulomb attenuation parameter = 0.2 bohr**(-1)
 An unrestricted hybrid HF-DFT SCF calculation will be
 performed using Relaxed Constraint Minimization + Pulay DIIS
 Exchange:     0.2220 Hartree-Fock + 1.0000 wB97X-D + LR-HF
 Correlation:  1.0000 wB97X-D
 Using Euler-Maclaurin-Lebedev (75,302) quadrature formula
 Dispersion:   Grimme D
 SCF converges when DIIS error is below 1.0E-05
 Basis2 calculation detected. Using small basis as guess for larger.
 SCFMinFind is unable to tell whether the solution found is close.
 Resetting ReadMinima to 0 and attempting to follow guess.
 SCFMinFind following SCF Guess.
 using 6 threads for integral computing
 -------------------------------------------------------
 OpenMP Integral computing Module                
 Release: version 1.0, May 2013, Q-Chem Inc. Pittsburgh 
 -------------------------------------------------------
 using 6 threads for integral computing
 -------------------------------------------------------
 OpenMP Integral computing Module                
 Release: version 1.0, May 2013, Q-Chem Inc. Pittsburgh 
 -------------------------------------------------------
 ---------------------------------------
  Cycle       Energy         DIIS Error
 ---------------------------------------
    1    -409.9968999006      8.08E-03
    2    -409.9956542918      4.65E-03
    3    -410.0216329403      1.46E-03
    4    -410.0597564439      1.16E-03
    5    -410.0636133845      3.07E-04 Done RCA. Switching to DIIS
    6    -410.0684914426      4.84E-04
    7    -410.0695012922      6.58E-05
    8    -410.0696597619      3.08E-05
    9    -410.0697166915      1.66E-05
   10    -410.0697421707      9.88E-06 Convergence criterion met
 ---------------------------------------
 <S^2> = 2.0237
 SCF time:  CPU 64.35 s  wall 10.76 s
 SCF   energy in the final basis set = -410.06974217
 Total energy in the final basis set = -410.06974217
 
 --------------------------------------------------------------
 
                    Orbital Energies (a.u.)
 --------------------------------------------------------------
 
 Alpha MOs
 -- Occupied --
-19.4217 -19.4085 -19.3524 -19.3507 -14.7775 -14.6347  -1.4470  -1.3089
 -1.2613  -1.2103  -0.8918  -0.7822  -0.7211  -0.7201  -0.6855  -0.6425
 -0.6134  -0.6090  -0.5051  -0.4993  -0.4684  -0.4656  -0.4435  -0.3725
 -- Virtual --
 -0.0284  -0.0066   0.0752   0.1165   0.1241   0.1358   0.1371   0.1710
  0.1805   0.1843   0.2255   0.2399   0.2490   0.2657   0.2719   0.2839
  0.2983   0.3084   0.3260   0.3400   0.3441   0.3549   0.3596   0.3676
  0.3950   0.4272   0.4432   0.4543   0.4660   0.5204   0.7389   0.7607
  0.7995   0.8307   0.8579   0.8785   0.9284   0.9501   0.9679   1.0165
  1.0209   1.0354   1.0484   1.0718   1.0737   1.0834   1.1169   1.1238
  1.1355   1.1544   1.1568   1.1700   1.2146   1.2402   1.2491   1.3212
  1.4472   1.4676   1.5137   1.5430   1.5626   1.5867   1.5950   1.6104
  1.6338   1.6561   1.7006   1.7851   1.8025   1.8578   1.9093   1.9308
  1.9688   2.0717   2.1743   2.2071   2.3236   2.3584   2.4016   2.4329
  2.5327   2.5541   2.6846   2.8010   3.4935   3.5353   3.5692   3.6118
  3.6274   3.6600   3.6838   3.7128   3.7185   3.7751   3.8087   3.8422
  3.8848   3.9154   4.0095   4.0655   4.0782   4.3199   4.4190   4.4556
  4.5004   4.5059   4.6420   4.6610   4.6968   4.7135   4.7782   4.8257
  4.8504   4.9220   4.9882   4.9965   5.0148   5.0217   5.0393   5.0446
  5.0453   5.0596   5.0794   5.0976   5.1155   5.1308   5.1530   5.1681
  5.1977   5.2265   5.3087   5.3332   5.3962   5.4143   5.4202   5.4383
  5.4827   5.5514   5.6460   5.6695   5.8225   5.8729   5.9787   6.0946
  6.2348   6.3085   6.3411   6.5262   6.6828   6.7126   6.7199   6.7636
  6.7840   6.8210   6.8660   6.8887   6.9293   6.9894   7.0799   7.0921
  7.1219   7.1513   7.1658   7.2027   7.2727   7.3095   7.3649   7.5637
  7.5792   7.6695   7.8219   7.8463   7.9035   8.2538  35.6409  36.1126
 49.9764  50.0178  50.2222  50.2615
 
 Beta MOs
 -- Occupied --
-19.4111 -19.3876 -19.3528 -19.3487 -14.7772 -14.6169  -1.4430  -1.2644
 -1.2587  -1.1812  -0.8448  -0.7517  -0.7193  -0.7067  -0.6755  -0.5951
 -0.5599  -0.5253  -0.4796  -0.4759  -0.4633  -0.4481
 -- Virtual --
 -0.1637  -0.0380  -0.0255   0.0423   0.0829   0.1206   0.1350   0.1390
  0.1402   0.1735   0.1824   0.1875   0.2263   0.2440   0.2511   0.2666
  0.2749   0.2873   0.3074   0.3271   0.3312   0.3406   0.3468   0.3601
  0.3611   0.3699   0.3975   0.4299   0.4456   0.4584   0.4707   0.5248
  0.7486   0.7691   0.8094   0.8487   0.8749   0.8835   0.9319   0.9568
  0.9794   1.0261   1.0287   1.0503   1.0636   1.0820   1.0877   1.0965
  1.1249   1.1360   1.1492   1.1601   1.1709   1.1800   1.2246   1.2485
  1.2605   1.3364   1.4629   1.4812   1.5185   1.5474   1.5701   1.5976
  1.6139   1.6320   1.6527   1.6807   1.7075   1.7884   1.8103   1.8754
  1.9167   1.9401   1.9795   2.0928   2.1823   2.2192   2.3374   2.3670
  2.4132   2.4509   2.5345   2.5580   2.6916   2.8043   3.5199   3.5703
  3.5840   3.6273   3.6481   3.6618   3.6950   3.7201   3.7325   3.8323
  3.8392   3.8866   3.9123   3.9316   4.0100   4.0741   4.0896   4.3448
  4.4217   4.4581   4.5031   4.5094   4.6465   4.6961   4.7119   4.7238
  4.8362   4.8773   4.8908   4.9695   5.0053   5.0123   5.0414   5.0456
  5.0551   5.0650   5.0734   5.0869   5.0964   5.1142   5.1226   5.1520
  5.1715   5.1934   5.2072   5.2501   5.3281   5.3586   5.3998   5.4251
  5.4443   5.4614   5.4967   5.5543   5.6605   5.6928   5.8270   5.8779
  5.9917   6.1275   6.2751   6.3281   6.3662   6.5279   6.6914   6.7655
  6.7864   6.7923   6.7975   6.8276   6.8685   6.8896   6.9608   7.0005
  7.1038   7.1069   7.1518   7.1668   7.1887   7.2329   7.2854   7.3252
  7.3777   7.5719   7.6114   7.6927   7.8295   7.8615   7.9097   8.2559
 35.6633  36.1129  49.9890  50.0366  50.2242  50.2613
 --------------------------------------------------------------
 
 -----------------------------------------------------------------
                    Cartesian Multipole Moments
 -----------------------------------------------------------------
    Charge (ESU x 10^10)
                -0.0000
    Dipole Moment (Debye)
         X      -0.1809      Y      -0.6615      Z      -0.0227
       Tot       0.6862
    Quadrupole Moments (Debye-Ang)
        XX     -33.1137     XY      -0.9101     YY     -33.9941
        XZ      -1.7225     YZ      -0.3366     ZZ     -32.7892
    Octopole Moments (Debye-Ang^2)
       XXX     -33.5623    XXY     -12.5293    XYY     -11.3739
       YYY     -40.4152    XXZ     -96.1631    XYZ      -3.8461
       YYZ     -93.5099    XZZ     -17.7105    YZZ      -7.7447
       ZZZ    -279.7877
    Hexadecapole Moments (Debye-Ang^3)
      XXXX    -140.5352   XXXY     -62.2600   XXYY     -84.0779
      XYYY     -64.8082   YYYY    -366.7996   XXXZ     -89.2117
      XXYZ     -13.5094   XYYZ     -28.4092   YYYZ     -36.1368
      XXZZ    -323.1369   XYZZ     -34.4224   YYZZ    -341.7881
      XZZZ    -105.7056   YZZZ      -0.6770   ZZZZ   -1729.8307
 -----------------------------------------------------------------
Archival summary:
1\1\centos77-c5\SP\ProcedureUnspecified\BasisUnspecified\42(3)\shihchen\MonJul1315:49:002020MonJul1315:49:002020\0\\#,ProcedureUnspecified,BasisUnspecified,\\0,3\N\O,1,1.1807\O,1,1.19808,2,131.776\O,1,1.41408,2,119.773,3,-179.744,0\N,4,1.63051,1,111.02,2,2.61374,0\O,5,1.26949,4,118.997,1,95.6949,0\\\@

 Total job time:  15.48s(wall), 82.58s(cpu) 
 Mon Jul 13 15:49:00 2020

        *************************************************************
        *                                                           *
        *  Thank you very much for using Q-Chem.  Have a nice day.  *
        *                                                           *
        *************************************************************


