                  Welcome to Q-Chem
     A Quantum Leap Into The Future Of Chemistry


 Q-Chem 5.3 (devel), Q-Chem, Inc., Pleasanton, CA (2020)

 Yihan Shao,  Zhengting Gan,  E. Epifanovsky,  A. T. B. Gilbert,  M. Wormit,  
 J. Kussmann,  A. W. Lange,  A. Behn,  Jia Deng,  Xintian Feng,  D. Ghosh,  
 M. Goldey,  P. R. Horn,  L. D. Jacobson,  I. Kaliman,  T. Kus,  A. Landau,  
 Jie Liu,  E. I. Proynov,  R. M. Richard,  R. P. Steele,  E. J. Sundstrom,  
 H. L. Woodcock III,  P. M. Zimmerman,  D. Zuev,  B. Alam,  B. Albrecht,  
 E. Alguire,  S. A. Baeppler,  D. Barton,  Z. Benda,  Y. A. Bernard,  
 E. J. Berquist,  K. B. Bravaya,  H. Burton,  K. Carter-Fenk,  D. Casanova,  
 Chun-Min Chang,  Yunqing Chen,  A. Chien,  K. D. Closser,  M. P. Coons,  
 S. Coriani,  S. Dasgupta,  A. L. Dempwolff,  M. Diedenhofen,  Hainam Do,  
 R. G. Edgar,  Po-Tung Fang,  S. Faraji,  S. Fatehi,  Qingguo Feng,  
 J. Fosso-Tande,  J. Gayvert,  Qinghui Ge,  A. Ghysels,  G. Gidofalvi,  
 J. Gomes,  J. Gonthier,  A. Gunina,  D. Hait,  M. W. D. Hanson-Heine,  
 P. H. P. Harbach,  A. W. Hauser,  M. F. Herbst,  J. E. Herr,  
 E. G. Hohenstein,  Z. C. Holden,  Kerwin Hui,  B. C. Huynh,  T.-C. Jagau,  
 Hyunjun Ji,  B. Kaduk,  K. Khistyaev,  Jaehoon Kim,  P. Klunzinger,  K. Koh,  
 D. Kosenkov,  L. Koulias,  T. Kowalczyk,  C. M. Krauter,  A. Kunitsa,  
 Ka Un Lao,  A. Laurent,  K. V. Lawler,  Joonho Lee,  D. Lefrancois,  
 S. Lehtola,  D. S. Levine,  Yi-Pei Li,  You-Sheng Lin,  Fenglai Liu,  
 Kuan-Yu Liu,  E. Livshits,  M. Loipersberger,  A. Luenser,  P. Manohar,  
 E. Mansoor,  S. F. Manzer,  Shan-Ping Mao,  Yuezhi Mao,  N. Mardirossian,  
 A. V. Marenich,  T. Markovich,  L. A. Martinez-Martinez,  S. A. Maurer,  
 N. J. Mayhall,  S. C. McKenzie,  J.-M. Mewes,  P. Morgante,  A. F. Morrison,  
 J. W. Mullinax,  K. Nanda,  T. S. Nguyen-Beck,  R. Olivares-Amaya,  
 K. J. Oosterbaan,  J. A. Parkhill,  S. K. Paul,  F. Pavosevic,  Zheng Pei,  
 T. M. Perrine,  F. Plasser,  P. Pokhilko,  S. Prager,  A. Prociuk,  
 E. Ramos,  B. Rana,  D. R. Rehn,  F. Rob,  M. Scheurer,  M. Schneider,  
 N. Sergueev,  S. M. Sharada,  S. Sharma,  D. W. Small,  T. Stauch,  
 C. J. Stein,  T. Stein,  Yu-Chuan Su,  S. P. Veccham,  Zhen Tao,  
 A. J. W. Thom,  A. Tkatchenko,  T. Tsuchimochi,  N. M. Tubman,  L. Vogt,  
 M. L. Vidal,  O. Vydrov,  M. A. Watson,  J. Wenzel,  M. de Wergifosse,  
 T. A. Wesolowski,  A. White,  J. Witte,  A. Yamada,  Jun Yang,  K. Yao,  
 S. Yeganeh,  S. R. Yost,  Zhi-Qiang You,  A. Zech,  Igor Ying Zhang,  
 Xing Zhang,  Yan Zhao,  Ying Zhu,  B. R. Brooks,  G. K. L. Chan,  
 C. J. Cramer,  M. S. Gordon,  W. J. Hehre,  A. Klamt,  M. W. Schmidt,  
 C. D. Sherrill,  D. G. Truhlar,  A. Aspuru-Guzik,  R. Baer,  A. T. Bell,  
 N. A. Besley,  Jeng-Da Chai,  A. E. DePrince, III,  R. A. DiStasio Jr.,  
 A. Dreuw,  B. D. Dunietz,  T. R. Furlani,  Chao-Ping Hsu,  Yousung Jung,  
 Jing Kong,  D. S. Lambrecht,  WanZhen Liang,  C. Ochsenfeld,  
 V. A. Rassolov,  L. V. Slipchenko,  J. E. Subotnik,  T. Van Voorhis,  
 J. M. Herbert,  A. I. Krylov,  P. M. W. Gill,  M. Head-Gordon

 Contributors to earlier versions of Q-Chem not listed above: 
 R. D. Adamson,  B. Austin,  J. Baker,  G. J. O. Beran,  K. Brandhorst,  
 S. T. Brown,  E. F. C. Byrd,  A. K. Chakraborty,  C.-L. Cheng,  
 Siu Hung Chien,  D. M. Chipman,  D. L. Crittenden,  H. Dachsel,  
 R. J. Doerksen,  A. D. Dutoi,  L. Fusti-Molnar,  W. A. Goddard III,  
 A. Golubeva-Zadorozhnaya,  S. R. Gwaltney,  G. Hawkins,  A. Heyden,  
 S. Hirata,  G. Kedziora,  F. J. Keil,  C. Kelley,  Jihan Kim,  R. A. King,  
 R. Z. Khaliullin,  P. P. Korambath,  W. Kurlancheek,  A. M. Lee,  M. S. Lee,  
 S. V. Levchenko,  Ching Yeh Lin,  D. Liotard,  R. C. Lochan,  I. Lotan,  
 P. E. Maslen,  N. Nair,  D. P. O'Neill,  D. Neuhauser,  E. Neuscamman,  
 C. M. Oana,  R. Olson,  B. Peters,  R. Peverati,  P. A. Pieniazek,  
 Y. M. Rhee,  J. Ritchie,  M. A. Rohrdanz,  E. Rosta,  N. J. Russ,  
 H. F. Schaefer III,  N. E. Schultz,  N. Shenvi,  A. C. Simmonett,  A. Sodt,  
 D. Stuck,  K. S. Thanthiriwatte,  V. Vanovschi,  Tao Wang,  A. Warshel,  
 C. F. Williams,  Q. Wu,  X. Xu,  W. Zhang

 Please cite Q-Chem as follows:
 Y. Shao et al., Mol. Phys. 113, 184-215 (2015)
 DOI: 10.1080/00268976.2014.952696

 Q-Chem 5.3.0 for Intel X86 EM64T Linux

 Parts of Q-Chem use Armadillo 9.800.1 (Horizon Scraper).
 http://arma.sourceforge.net/

 Q-Chem begins on Mon Jul 13 15:23:31 2020  

Host: centos77-c5
0

     Scratch files written to /tmp/29025.centos77-h1/qchem97326//
Processing $rem in /opt/qchem-5.3.0-intel2020u1//config/preferences:
Processing $rem in /home/shihchengli/.qchemrc:

Checking the input file for inconsistencies... 	...done.

--------------------------------------------------------------
User input:
--------------------------------------------------------------
$rem
   JOBTYPE  sp
   EXCHANGE   omegaB97X-D
   BASIS   6-311+G(2df,2pd)
   UNRESTRICTED   True
   max_scf_cycles   250
   geom_opt_max_cycles   1500
   basis2 6-31G*
   scf_algorithm rca_diis
   SYM_IGNORE  TRUE
   print_input   true
   geom_opt_dmax   80
   pop_mulliken false
   XC_GRID 000075000302
$end

$molecule
0 3
N       0.6032145755     1.1411387291     2.4800759722
O       0.4550042547     2.1890022693     1.9326597777
O       1.4197477686     0.7641103555     3.2529353080
N       0.1635449629     -1.0286660766     3.1393824015
O       -0.3365250067     -1.1668149596     4.1776372013
O       -0.3599954249     0.1962187923     2.1176092293
$end
--------------------------------------------------------------
 ----------------------------------------------------------------
             Standard Nuclear Orientation (Angstroms)
    I     Atom           X                Y                Z
 ----------------------------------------------------------------
    1      N       0.6032145755     1.1411387291     2.4800759722
    2      O       0.4550042547     2.1890022693     1.9326597777
    3      O       1.4197477686     0.7641103555     3.2529353080
    4      N       0.1635449629    -1.0286660766     3.1393824015
    5      O      -0.3365250067    -1.1668149596     4.1776372013
    6      O      -0.3599954249     0.1962187923     2.1176092293
 ----------------------------------------------------------------
 Nuclear Repulsion Energy =         238.37070240 hartrees
 There are       24 alpha and       22 beta electrons
 Requested basis set is 6-311+G(2df,2pd)
 There are 48 shells and 204 basis functions

 Total QAlloc Memory Limit   2000 MB
 Mega-Array Size       188 MB
 MEM_STATIC part       192 MB

                       Distance Matrix (Angstroms)
             N (  1)   O (  2)   O (  3)   N (  4)   O (  5)
   O (  2)  1.191490
   O (  3)  1.185828  2.168911
   N (  4)  2.309989  3.448843  2.192028
   O (  5)  3.015207  4.114359  2.769123  1.160658
   O (  6)  1.397150  2.160930  2.186081  1.678826  2.470248
 
 A cutoff of  1.0D-09 yielded   1051 shell pairs
 There are     19549 function pairs (     25667 Cartesian)
 Smallest overlap matrix eigenvalue = 4.48E-04

 Scale SEOQF with 1.000000e-01/1.000000e-01/1.000000e-01

 Standard Electronic Orientation quadrupole field applied
 Nucleus-field energy     =    -0.0000000372 hartrees
 Requested basis set is 6-31G(d)
 There are 24 shells and 84 basis functions
 A cutoff of  1.0D-09 yielded    271 shell pairs
 There are      3548 function pairs (      4078 Cartesian)
 Smallest overlap matrix eigenvalue = 4.87E-03
 Guess from superposition of atomic densities
 Warning:  Energy on first SCF cycle will be non-variational
 SAD guess density has 46.000000 electrons
 Long-range K will be added via erf
 Coulomb attenuation parameter = 0.2 bohr**(-1)
 An unrestricted hybrid HF-DFT SCF calculation will be
 performed using Relaxed Constraint Minimization + Pulay DIIS
 Exchange:     0.2220 Hartree-Fock + 1.0000 wB97X-D + LR-HF
 Correlation:  1.0000 wB97X-D
 Using Euler-Maclaurin-Lebedev (75,302) quadrature formula
 Dispersion:   Grimme D
 SCF converges when DIIS error is below 1.0E-04
 using 6 threads for integral computing
 -------------------------------------------------------
 OpenMP Integral computing Module                
 Release: version 1.0, May 2013, Q-Chem Inc. Pittsburgh 
 -------------------------------------------------------
 using 6 threads for integral computing
 -------------------------------------------------------
 OpenMP Integral computing Module                
 Release: version 1.0, May 2013, Q-Chem Inc. Pittsburgh 
 -------------------------------------------------------
 ---------------------------------------
  Cycle       Energy         DIIS Error
 ---------------------------------------
    1    -411.1002258098      8.95E-02
    2    -409.6396613035      1.98E-02
    3    -409.7458047533      4.39E-03
    4    -409.8968809295      4.61E-03
    5    -409.9028644509      6.11E-04 Done RCA. Switching to DIIS
    6    -409.9108057171      5.11E-04
    7    -409.9111800485      9.21E-05 Convergence criterion met
 ---------------------------------------
 <S^2> = 2.0148
 SCF time:  CPU 13.44 s  wall 2.25 s
 SCF   energy in the small basis set = -409.91118005
 Total energy in the small basis set = -409.91118005
 ----------------------------------------------------
  Cycle       Energy    
 ----------------------------------------------------
    1     -41.7937632602     -4.18E+01
 Long-range K will be added via erf
 Coulomb attenuation parameter = 0.2 bohr**(-1)
 An unrestricted hybrid HF-DFT SCF calculation will be
 performed using Relaxed Constraint Minimization + Pulay DIIS
 Exchange:     0.2220 Hartree-Fock + 1.0000 wB97X-D + LR-HF
 Correlation:  1.0000 wB97X-D
 Using Euler-Maclaurin-Lebedev (75,302) quadrature formula
 Dispersion:   Grimme D
 SCF converges when DIIS error is below 1.0E-05
 Basis2 calculation detected. Using small basis as guess for larger.
 SCFMinFind is unable to tell whether the solution found is close.
 Resetting ReadMinima to 0 and attempting to follow guess.
 SCFMinFind following SCF Guess.
 using 6 threads for integral computing
 -------------------------------------------------------
 OpenMP Integral computing Module                
 Release: version 1.0, May 2013, Q-Chem Inc. Pittsburgh 
 -------------------------------------------------------
 using 6 threads for integral computing
 -------------------------------------------------------
 OpenMP Integral computing Module                
 Release: version 1.0, May 2013, Q-Chem Inc. Pittsburgh 
 -------------------------------------------------------
 ---------------------------------------
  Cycle       Energy         DIIS Error
 ---------------------------------------
    1    -410.0003121936      8.03E-03
    2    -410.0097367211      4.15E-03
    3    -410.0308061289      1.16E-03
    4    -410.0608923559      1.20E-03
    5    -410.0630993710      1.82E-04 Done RCA. Switching to DIIS
    6    -410.0663098816      1.84E-04
    7    -410.0664986363      5.09E-05
    8    -410.0665808506      2.24E-05
    9    -410.0666121702      1.11E-05
   10    -410.0666222963      5.71E-06 Convergence criterion met
 ---------------------------------------
 <S^2> = 2.0180
 SCF time:  CPU 68.67 s  wall 11.48 s
 SCF   energy in the final basis set = -410.06662230
 Total energy in the final basis set = -410.06662230
 
 --------------------------------------------------------------
 
                    Orbital Energies (a.u.)
 --------------------------------------------------------------
 
 Alpha MOs
 -- Occupied --
-19.4160 -19.4001 -19.3451 -19.3391 -14.7706 -14.6171  -1.4480  -1.3740
 -1.2559  -1.2159  -0.8618  -0.7800  -0.7232  -0.7208  -0.6932  -0.6579
 -0.6368  -0.6319  -0.5004  -0.4951  -0.4612  -0.4575  -0.4459  -0.3293
 -- Virtual --
 -0.0218   0.0022   0.0786   0.1184   0.1328   0.1355   0.1396   0.1726
  0.1805   0.1854   0.2274   0.2449   0.2525   0.2716   0.2832   0.2963
  0.3095   0.3293   0.3423   0.3459   0.3545   0.3583   0.3682   0.3923
  0.4001   0.4330   0.4404   0.4580   0.5059   0.5203   0.7468   0.8007
  0.8103   0.8258   0.8507   0.8999   0.9333   0.9472   0.9651   1.0049
  1.0161   1.0289   1.0510   1.0665   1.0816   1.1051   1.1199   1.1308
  1.1359   1.1647   1.1744   1.1899   1.2362   1.2459   1.2590   1.3002
  1.4360   1.5032   1.5341   1.5526   1.5631   1.5907   1.6109   1.6176
  1.6795   1.6954   1.7636   1.7875   1.8582   1.9425   1.9501   1.9774
  2.0911   2.1415   2.2095   2.2926   2.3541   2.3873   2.4231   2.5103
  2.5367   2.5944   2.7277   2.8292   3.5249   3.5353   3.5551   3.6314
  3.6431   3.6701   3.6976   3.7233   3.7646   3.7786   3.8063   3.8641
  3.9635   3.9884   4.0183   4.0682   4.0984   4.4349   4.4696   4.4843
  4.5082   4.6196   4.6304   4.6570   4.6967   4.6992   4.7354   4.7717
  4.8725   4.9139   4.9857   5.0013   5.0169   5.0300   5.0399   5.0610
  5.0701   5.0729   5.1233   5.1312   5.1454   5.1493   5.1880   5.2047
  5.2403   5.2617   5.3328   5.3873   5.4208   5.4299   5.4751   5.5120
  5.5334   5.6053   5.6521   5.7052   5.8216   5.9145   5.9808   6.1063
  6.2701   6.5319   6.6885   6.6912   6.7042   6.7379   6.7433   6.7788
  6.8143   6.8343   6.8899   6.9670   6.9912   7.0535   7.0889   7.0986
  7.1735   7.1961   7.2043   7.2789   7.3434   7.4209   7.5340   7.5904
  7.6080   7.7237   7.8076   7.8798   7.9423   8.2952  35.9510  36.1360
 50.0201  50.1807  50.2479  50.2894
 
 Beta MOs
 -- Occupied --
-19.4016 -19.3834 -19.3436 -19.3388 -14.7705 -14.5981  -1.4420  -1.3380
 -1.2531  -1.1817  -0.8149  -0.7453  -0.7178  -0.7089  -0.6727  -0.6151
 -0.5855  -0.5635  -0.4804  -0.4701  -0.4598  -0.4357
 -- Virtual --
 -0.1544  -0.0189   0.0025   0.0558   0.0869   0.1231   0.1392   0.1423
  0.1471   0.1758   0.1848   0.1895   0.2290   0.2491   0.2548   0.2730
  0.2873   0.2989   0.3157   0.3316   0.3445   0.3471   0.3564   0.3599
  0.3710   0.4016   0.4051   0.4347   0.4430   0.4672   0.5226   0.5262
  0.7546   0.8134   0.8216   0.8476   0.8652   0.9051   0.9396   0.9627
  0.9706   1.0149   1.0264   1.0388   1.0614   1.0763   1.0927   1.1135
  1.1342   1.1411   1.1434   1.1693   1.1800   1.2090   1.2507   1.2586
  1.2720   1.3219   1.4434   1.5153   1.5489   1.5573   1.5706   1.6049
  1.6248   1.6387   1.6898   1.7102   1.7754   1.7920   1.8748   1.9496
  1.9653   1.9868   2.1109   2.1572   2.2180   2.3052   2.3633   2.3990
  2.4443   2.5219   2.5387   2.6026   2.7357   2.8341   3.5518   3.5558
  3.5849   3.6456   3.6641   3.6777   3.7096   3.7306   3.7885   3.8039
  3.8572   3.8970   3.9886   4.0068   4.0234   4.0870   4.1098   4.4381
  4.4744   4.4892   4.5107   4.6312   4.6665   4.6825   4.7179   4.7298
  4.7637   4.8063   4.9128   4.9578   5.0015   5.0232   5.0467   5.0507
  5.0593   5.0753   5.0802   5.0877   5.1287   5.1414   5.1721   5.1794
  5.2186   5.2279   5.2508   5.2883   5.3494   5.4122   5.4272   5.4398
  5.4858   5.5364   5.5596   5.6145   5.6804   5.7159   5.8299   5.9221
  6.0135   6.1387   6.2768   6.5343   6.7121   6.7279   6.7312   6.7824
  6.7991   6.8013   6.8204   6.8404   6.8924   6.9932   7.0078   7.0654
  7.1102   7.1193   7.1763   7.2255   7.2347   7.2860   7.3507   7.4507
  7.5682   7.6124   7.6221   7.7502   7.8141   7.8866   7.9583   8.2976
 35.9738  36.1363  50.0355  50.1959  50.2494  50.2900
 --------------------------------------------------------------
 
 -----------------------------------------------------------------
                    Cartesian Multipole Moments
 -----------------------------------------------------------------
    Charge (ESU x 10^10)
                -0.0000
    Dipole Moment (Debye)
         X      -0.3025      Y      -0.9377      Z       0.0403
       Tot       0.9861
    Quadrupole Moments (Debye-Ang)
        XX     -32.6917     XY      -1.3528     YY     -33.8473
        XZ      -1.9401     YZ      -1.5139     ZZ     -32.3864
    Octopole Moments (Debye-Ang^2)
       XXX     -33.0428    XXY     -13.0333    XYY     -11.6562
       YYY     -42.2269    XXZ     -94.5626    XYZ      -5.1352
       YYZ     -92.5108    XZZ     -18.0205    YZZ     -12.7481
       ZZZ    -277.5502
    Hexadecapole Moments (Debye-Ang^3)
      XXXX    -118.1112   XXXY     -48.8043   XXYY     -73.3999
      XYYY     -52.7569   YYYY    -330.4859   XXXZ     -93.6205
      XXYZ     -17.1303   XYYZ     -30.8260   YYYZ     -48.2607
      XXZZ    -314.0278   XYZZ     -34.4411   YYZZ    -330.4798
      XZZZ    -111.4209   YZZZ     -27.8047   ZZZZ   -1718.3453
 -----------------------------------------------------------------
Archival summary:
1\1\centos77-c5\SP\ProcedureUnspecified\BasisUnspecified\42(3)\shihchen\MonJul1315:23:472020MonJul1315:23:472020\0\\#,ProcedureUnspecified,BasisUnspecified,\\0,3\N\O,1,1.18583\O,1,1.19149,2,131.66\O,1,1.39715,2,115.389,3,179.022,0\N,4,1.67883,1,96.9244,2,3.59074,0\O,5,1.16066,4,119.796,1,95.6994,0\\\@

 Total job time:  16.24s(wall), 86.54s(cpu) 
 Mon Jul 13 15:23:47 2020

        *************************************************************
        *                                                           *
        *  Thank you very much for using Q-Chem.  Have a nice day.  *
        *                                                           *
        *************************************************************


