                  Welcome to Q-Chem
     A Quantum Leap Into The Future Of Chemistry


 Q-Chem 5.3 (devel), Q-Chem, Inc., Pleasanton, CA (2020)

 Yihan Shao,  Zhengting Gan,  E. Epifanovsky,  A. T. B. Gilbert,  M. Wormit,  
 J. Kussmann,  A. W. Lange,  A. Behn,  Jia Deng,  Xintian Feng,  D. Ghosh,  
 M. Goldey,  P. R. Horn,  L. D. Jacobson,  I. Kaliman,  T. Kus,  A. Landau,  
 Jie Liu,  E. I. Proynov,  R. M. Richard,  R. P. Steele,  E. J. Sundstrom,  
 H. L. Woodcock III,  P. M. Zimmerman,  D. Zuev,  B. Alam,  B. Albrecht,  
 E. Alguire,  S. A. Baeppler,  D. Barton,  Z. Benda,  Y. A. Bernard,  
 E. J. Berquist,  K. B. Bravaya,  H. Burton,  K. Carter-Fenk,  D. Casanova,  
 Chun-Min Chang,  Yunqing Chen,  A. Chien,  K. D. Closser,  M. P. Coons,  
 S. Coriani,  S. Dasgupta,  A. L. Dempwolff,  M. Diedenhofen,  Hainam Do,  
 R. G. Edgar,  Po-Tung Fang,  S. Faraji,  S. Fatehi,  Qingguo Feng,  
 J. Fosso-Tande,  J. Gayvert,  Qinghui Ge,  A. Ghysels,  G. Gidofalvi,  
 J. Gomes,  J. Gonthier,  A. Gunina,  D. Hait,  M. W. D. Hanson-Heine,  
 P. H. P. Harbach,  A. W. Hauser,  M. F. Herbst,  J. E. Herr,  
 E. G. Hohenstein,  Z. C. Holden,  Kerwin Hui,  B. C. Huynh,  T.-C. Jagau,  
 Hyunjun Ji,  B. Kaduk,  K. Khistyaev,  Jaehoon Kim,  P. Klunzinger,  K. Koh,  
 D. Kosenkov,  L. Koulias,  T. Kowalczyk,  C. M. Krauter,  A. Kunitsa,  
 Ka Un Lao,  A. Laurent,  K. V. Lawler,  Joonho Lee,  D. Lefrancois,  
 S. Lehtola,  D. S. Levine,  Yi-Pei Li,  You-Sheng Lin,  Fenglai Liu,  
 Kuan-Yu Liu,  E. Livshits,  M. Loipersberger,  A. Luenser,  P. Manohar,  
 E. Mansoor,  S. F. Manzer,  Shan-Ping Mao,  Yuezhi Mao,  N. Mardirossian,  
 A. V. Marenich,  T. Markovich,  L. A. Martinez-Martinez,  S. A. Maurer,  
 N. J. Mayhall,  S. C. McKenzie,  J.-M. Mewes,  P. Morgante,  A. F. Morrison,  
 J. W. Mullinax,  K. Nanda,  T. S. Nguyen-Beck,  R. Olivares-Amaya,  
 K. J. Oosterbaan,  J. A. Parkhill,  S. K. Paul,  F. Pavosevic,  Zheng Pei,  
 T. M. Perrine,  F. Plasser,  P. Pokhilko,  S. Prager,  A. Prociuk,  
 E. Ramos,  B. Rana,  D. R. Rehn,  F. Rob,  M. Scheurer,  M. Schneider,  
 N. Sergueev,  S. M. Sharada,  S. Sharma,  D. W. Small,  T. Stauch,  
 C. J. Stein,  T. Stein,  Yu-Chuan Su,  S. P. Veccham,  Zhen Tao,  
 A. J. W. Thom,  A. Tkatchenko,  T. Tsuchimochi,  N. M. Tubman,  L. Vogt,  
 M. L. Vidal,  O. Vydrov,  M. A. Watson,  J. Wenzel,  M. de Wergifosse,  
 T. A. Wesolowski,  A. White,  J. Witte,  A. Yamada,  Jun Yang,  K. Yao,  
 S. Yeganeh,  S. R. Yost,  Zhi-Qiang You,  A. Zech,  Igor Ying Zhang,  
 Xing Zhang,  Yan Zhao,  Ying Zhu,  B. R. Brooks,  G. K. L. Chan,  
 C. J. Cramer,  M. S. Gordon,  W. J. Hehre,  A. Klamt,  M. W. Schmidt,  
 C. D. Sherrill,  D. G. Truhlar,  A. Aspuru-Guzik,  R. Baer,  A. T. Bell,  
 N. A. Besley,  Jeng-Da Chai,  A. E. DePrince, III,  R. A. DiStasio Jr.,  
 A. Dreuw,  B. D. Dunietz,  T. R. Furlani,  Chao-Ping Hsu,  Yousung Jung,  
 Jing Kong,  D. S. Lambrecht,  WanZhen Liang,  C. Ochsenfeld,  
 V. A. Rassolov,  L. V. Slipchenko,  J. E. Subotnik,  T. Van Voorhis,  
 J. M. Herbert,  A. I. Krylov,  P. M. W. Gill,  M. Head-Gordon

 Contributors to earlier versions of Q-Chem not listed above: 
 R. D. Adamson,  B. Austin,  J. Baker,  G. J. O. Beran,  K. Brandhorst,  
 S. T. Brown,  E. F. C. Byrd,  A. K. Chakraborty,  C.-L. Cheng,  
 Siu Hung Chien,  D. M. Chipman,  D. L. Crittenden,  H. Dachsel,  
 R. J. Doerksen,  A. D. Dutoi,  L. Fusti-Molnar,  W. A. Goddard III,  
 A. Golubeva-Zadorozhnaya,  S. R. Gwaltney,  G. Hawkins,  A. Heyden,  
 S. Hirata,  G. Kedziora,  F. J. Keil,  C. Kelley,  Jihan Kim,  R. A. King,  
 R. Z. Khaliullin,  P. P. Korambath,  W. Kurlancheek,  A. M. Lee,  M. S. Lee,  
 S. V. Levchenko,  Ching Yeh Lin,  D. Liotard,  R. C. Lochan,  I. Lotan,  
 P. E. Maslen,  N. Nair,  D. P. O'Neill,  D. Neuhauser,  E. Neuscamman,  
 C. M. Oana,  R. Olson,  B. Peters,  R. Peverati,  P. A. Pieniazek,  
 Y. M. Rhee,  J. Ritchie,  M. A. Rohrdanz,  E. Rosta,  N. J. Russ,  
 H. F. Schaefer III,  N. E. Schultz,  N. Shenvi,  A. C. Simmonett,  A. Sodt,  
 D. Stuck,  K. S. Thanthiriwatte,  V. Vanovschi,  Tao Wang,  A. Warshel,  
 C. F. Williams,  Q. Wu,  X. Xu,  W. Zhang

 Please cite Q-Chem as follows:
 Y. Shao et al., Mol. Phys. 113, 184-215 (2015)
 DOI: 10.1080/00268976.2014.952696

 Q-Chem 5.3.0 for Intel X86 EM64T Linux

 Parts of Q-Chem use Armadillo 9.800.1 (Horizon Scraper).
 http://arma.sourceforge.net/

 Q-Chem begins on Mon Jul 13 15:38:01 2020  

Host: centos77-c5
0

     Scratch files written to /tmp/29025.centos77-h1/qchem95432//
Processing $rem in /opt/qchem-5.3.0-intel2020u1//config/preferences:
Processing $rem in /home/shihchengli/.qchemrc:

Checking the input file for inconsistencies... 	...done.

--------------------------------------------------------------
User input:
--------------------------------------------------------------
$rem
   JOBTYPE  sp
   EXCHANGE   omegaB97X-D
   BASIS   6-311+G(2df,2pd)
   UNRESTRICTED   True
   max_scf_cycles   250
   geom_opt_max_cycles   1500
   basis2 6-31G*
   scf_algorithm rca_diis
   SYM_IGNORE  TRUE
   print_input   true
   geom_opt_dmax   80
   pop_mulliken false
   XC_GRID 000075000302
$end

$molecule
0 3
N       0.6582428647     1.2473198915     2.4459530023
O       0.3182976172     2.2269101248     1.7968912492
O       1.5116713007     0.8465981063     3.1527030918
N       0.0455954190     -1.1125876994     3.1460966793
O       -0.5206002081     -1.3582786628     4.1521148353
O       -0.0682158634     0.2450273494     2.4065410320
$end
--------------------------------------------------------------
 ----------------------------------------------------------------
             Standard Nuclear Orientation (Angstroms)
    I     Atom           X                Y                Z
 ----------------------------------------------------------------
    1      N       0.6582428647     1.2473198915     2.4459530023
    2      O       0.3182976172     2.2269101248     1.7968912492
    3      O       1.5116713007     0.8465981063     3.1527030918
    4      N       0.0455954190    -1.1125876994     3.1460966793
    5      O      -0.5206002081    -1.3582786628     4.1521148353
    6      O      -0.0682158634     0.2450273494     2.4065410320
 ----------------------------------------------------------------
 Nuclear Repulsion Energy =         238.74194567 hartrees
 There are       24 alpha and       22 beta electrons
 Requested basis set is 6-311+G(2df,2pd)
 There are 48 shells and 204 basis functions

 Total QAlloc Memory Limit   2000 MB
 Mega-Array Size       188 MB
 MEM_STATIC part       192 MB

                       Distance Matrix (Angstroms)
             N (  1)   O (  2)   O (  3)   N (  4)   O (  5)
   O (  2)  1.223291
   O (  3)  1.178310  2.273242
   N (  4)  2.536671  3.612059  2.447005
   O (  5)  3.330136  4.370859  3.160765  1.180260
   O (  6)  1.238501  2.109247  1.847888  1.550166  2.412938
 
 A cutoff of  1.0D-09 yielded   1034 shell pairs
 There are     19165 function pairs (     25119 Cartesian)
 Smallest overlap matrix eigenvalue = 5.70E-04

 Scale SEOQF with 1.000000e-01/1.000000e-01/1.000000e-01

 Standard Electronic Orientation quadrupole field applied
 Nucleus-field energy     =    -0.0000000363 hartrees
 Requested basis set is 6-31G(d)
 There are 24 shells and 84 basis functions
 A cutoff of  1.0D-09 yielded    269 shell pairs
 There are      3538 function pairs (      4066 Cartesian)
 Smallest overlap matrix eigenvalue = 3.66E-03
 Guess from superposition of atomic densities
 Warning:  Energy on first SCF cycle will be non-variational
 SAD guess density has 46.000000 electrons
 Long-range K will be added via erf
 Coulomb attenuation parameter = 0.2 bohr**(-1)
 An unrestricted hybrid HF-DFT SCF calculation will be
 performed using Relaxed Constraint Minimization + Pulay DIIS
 Exchange:     0.2220 Hartree-Fock + 1.0000 wB97X-D + LR-HF
 Correlation:  1.0000 wB97X-D
 Using Euler-Maclaurin-Lebedev (75,302) quadrature formula
 Dispersion:   Grimme D
 SCF converges when DIIS error is below 1.0E-04
 using 6 threads for integral computing
 -------------------------------------------------------
 OpenMP Integral computing Module                
 Release: version 1.0, May 2013, Q-Chem Inc. Pittsburgh 
 -------------------------------------------------------
 using 6 threads for integral computing
 -------------------------------------------------------
 OpenMP Integral computing Module                
 Release: version 1.0, May 2013, Q-Chem Inc. Pittsburgh 
 -------------------------------------------------------
 ---------------------------------------
  Cycle       Energy         DIIS Error
 ---------------------------------------
    1    -411.4100000306      9.52E-02
    2    -409.5729659345      1.98E-02
    3    -409.6789352846      4.92E-03
    4    -409.8336542235      4.94E-03
    5    -409.8403519811      6.58E-04 Done RCA. Switching to DIIS
    6    -409.8488531347      5.26E-04
    7    -409.8491334649      2.28E-04
    8    -409.8492509622      7.19E-05 Convergence criterion met
 ---------------------------------------
 <S^2> = 2.0142
 SCF time:  CPU 14.15 s  wall 2.37 s
 SCF   energy in the small basis set = -409.84925096
 Total energy in the small basis set = -409.84925096
 ----------------------------------------------------
  Cycle       Energy    
 ----------------------------------------------------
    1     -41.8804123743     -4.19E+01
 Long-range K will be added via erf
 Coulomb attenuation parameter = 0.2 bohr**(-1)
 An unrestricted hybrid HF-DFT SCF calculation will be
 performed using Relaxed Constraint Minimization + Pulay DIIS
 Exchange:     0.2220 Hartree-Fock + 1.0000 wB97X-D + LR-HF
 Correlation:  1.0000 wB97X-D
 Using Euler-Maclaurin-Lebedev (75,302) quadrature formula
 Dispersion:   Grimme D
 SCF converges when DIIS error is below 1.0E-05
 Basis2 calculation detected. Using small basis as guess for larger.
 SCFMinFind is unable to tell whether the solution found is close.
 Resetting ReadMinima to 0 and attempting to follow guess.
 SCFMinFind following SCF Guess.
 using 6 threads for integral computing
 -------------------------------------------------------
 OpenMP Integral computing Module                
 Release: version 1.0, May 2013, Q-Chem Inc. Pittsburgh 
 -------------------------------------------------------
 using 6 threads for integral computing
 -------------------------------------------------------
 OpenMP Integral computing Module                
 Release: version 1.0, May 2013, Q-Chem Inc. Pittsburgh 
 -------------------------------------------------------
 ---------------------------------------
  Cycle       Energy         DIIS Error
 ---------------------------------------
    1    -409.9302973045      8.12E-03
    2    -409.9361567200      4.57E-03
    3    -409.9631268352      1.15E-03
    4    -410.0008867529      1.14E-03
    5    -410.0030714193      1.49E-04 Done RCA. Switching to DIIS
    6    -410.0061075945      1.52E-04
    7    -410.0064078699      5.11E-05
    8    -410.0066274332      3.42E-05
    9    -410.0067114604      2.23E-05
   10    -410.0067441511      1.50E-05
   11    -410.0067630003      7.22E-06 Convergence criterion met
 ---------------------------------------
 <S^2> = 2.0170
 SCF time:  CPU 70.71 s  wall 11.82 s
 SCF   energy in the final basis set = -410.00676300
 Total energy in the final basis set = -410.00676300
 
 --------------------------------------------------------------
 
                    Orbital Energies (a.u.)
 --------------------------------------------------------------
 
 Alpha MOs
 -- Occupied --
-19.4150 -19.3923 -19.3548 -19.3340 -14.7841 -14.6206  -1.5050  -1.3584
 -1.2729  -1.2324  -0.9362  -0.7638  -0.7535  -0.7290  -0.6986  -0.6559
 -0.6269  -0.6090  -0.5075  -0.4989  -0.4670  -0.4556  -0.4287  -0.3400
 -- Virtual --
 -0.0261   0.0177   0.0850   0.1169   0.1310   0.1354   0.1667   0.1753
  0.1840   0.2217   0.2360   0.2420   0.2469   0.2681   0.2831   0.2935
  0.3033   0.3113   0.3313   0.3489   0.3525   0.3674   0.3789   0.3969
  0.4009   0.4282   0.4525   0.4762   0.4860   0.5491   0.7718   0.7965
  0.8039   0.8244   0.8472   0.9026   0.9226   0.9324   0.9774   1.0056
  1.0193   1.0318   1.0536   1.0764   1.0870   1.1036   1.1185   1.1253
  1.1451   1.1663   1.1745   1.2082   1.2152   1.2729   1.2792   1.3658
  1.4589   1.4860   1.5257   1.5384   1.5778   1.5806   1.6087   1.6241
  1.6654   1.7198   1.7266   1.7992   1.8372   1.9012   1.9404   2.0031
  2.0797   2.1535   2.2699   2.2908   2.3721   2.4527   2.4770   2.5107
  2.5419   2.6139   2.7760   2.7901   3.4998   3.5238   3.5956   3.6415
  3.6488   3.6739   3.6924   3.7314   3.7632   3.7787   3.8391   3.8930
  3.9703   4.0216   4.0781   4.2384   4.2709   4.4370   4.4968   4.5002
  4.5436   4.5836   4.6397   4.6787   4.6964   4.7091   4.7283   4.8042
  4.8713   4.9373   4.9837   5.0053   5.0285   5.0370   5.0419   5.0493
  5.0772   5.0925   5.1028   5.1219   5.1328   5.1510   5.1589   5.1830
  5.2571   5.2753   5.3341   5.3670   5.4163   5.4503   5.4758   5.5247
  5.5532   5.6091   5.7326   5.8333   5.8920   6.0428   6.2770   6.4641
  6.4744   6.6030   6.7005   6.7153   6.7317   6.7500   6.7528   6.8153
  6.8280   6.8389   6.8907   6.9418   7.0394   7.0631   7.1212   7.1416
  7.1513   7.1866   7.2652   7.3032   7.3333   7.4145   7.5481   7.6238
  7.6887   7.7882   7.8798   7.9652   8.1290   8.5329  35.8988  36.2897
 50.0931  50.1593  50.2223  50.3391
 
 Beta MOs
 -- Occupied --
-19.4022 -19.3748 -19.3531 -19.3321 -14.7841 -14.6023  -1.4936  -1.3209
 -1.2670  -1.2102  -0.8976  -0.7493  -0.7358  -0.7052  -0.6807  -0.5998
 -0.5819  -0.5421  -0.4835  -0.4705  -0.4635  -0.4207
 -- Virtual --
 -0.1578  -0.0214  -0.0038   0.0624   0.0879   0.1210   0.1348   0.1390
  0.1686   0.1790   0.1878   0.2226   0.2380   0.2461   0.2507   0.2702
  0.2851   0.3041   0.3075   0.3217   0.3328   0.3510   0.3541   0.3709
  0.3824   0.4034   0.4105   0.4330   0.4587   0.4791   0.5028   0.5546
  0.7766   0.8066   0.8125   0.8500   0.8563   0.9124   0.9361   0.9389
  0.9874   1.0156   1.0263   1.0382   1.0653   1.0888   1.1033   1.1140
  1.1284   1.1386   1.1573   1.1778   1.1819   1.2167   1.2301   1.2839
  1.2864   1.3848   1.4733   1.4934   1.5320   1.5508   1.5842   1.5879
  1.6292   1.6361   1.6802   1.7373   1.7465   1.8068   1.8457   1.9084
  1.9487   2.0189   2.0937   2.1676   2.2802   2.3104   2.3836   2.4603
  2.4853   2.5200   2.5533   2.6171   2.7862   2.7957   3.5282   3.5556
  3.6062   3.6465   3.6672   3.6824   3.7201   3.7406   3.7832   3.8361
  3.8799   3.9101   3.9985   4.0263   4.0924   4.2495   4.2756   4.4445
  4.4985   4.5056   4.5592   4.6044   4.6484   4.7031   4.7256   4.7425
  4.7612   4.8324   4.9188   4.9824   4.9990   5.0231   5.0510   5.0522
  5.0658   5.0759   5.0954   5.1071   5.1175   5.1376   5.1590   5.1673
  5.1775   5.2149   5.2767   5.2877   5.3442   5.3721   5.4371   5.4716
  5.4937   5.5406   5.5695   5.6338   5.7500   5.8398   5.8986   6.0652
  6.2845   6.4749   6.4883   6.6446   6.7108   6.7549   6.7578   6.7952
  6.8052   6.8279   6.8412   6.8509   6.8995   6.9710   7.0575   7.0774
  7.1250   7.1624   7.1751   7.2164   7.2834   7.3092   7.3451   7.4369
  7.5705   7.6344   7.7153   7.7934   7.9071   7.9729   8.1386   8.5376
 35.9208  36.2898  50.1040  50.1753  50.2242  50.3424
 --------------------------------------------------------------
 
 -----------------------------------------------------------------
                    Cartesian Multipole Moments
 -----------------------------------------------------------------
    Charge (ESU x 10^10)
                 0.0000
    Dipole Moment (Debye)
         X      -0.3305      Y      -0.6428      Z      -0.0830
       Tot       0.7275
    Quadrupole Moments (Debye-Ang)
        XX     -33.4511     XY      -1.1967     YY     -33.8966
        XZ      -2.1024     YZ      -0.0826     ZZ     -32.9591
    Octopole Moments (Debye-Ang^2)
       XXX     -34.8978    XXY     -13.1935    XYY     -11.5860
       YYY     -41.8679    XXZ     -97.2949    XYZ      -4.8401
       YYZ     -92.9663    XZZ     -18.5145    YZZ      -6.8414
       ZZZ    -279.9685
    Hexadecapole Moments (Debye-Ang^3)
      XXXX    -131.1518   XXXY     -59.6364   XXYY     -82.7946
      XYYY     -60.1728   YYYY    -369.9485   XXXZ     -90.2824
      XXYZ     -13.8729   XYYZ     -27.9031   YYYZ     -34.1507
      XXZZ    -324.3326   XYZZ     -37.0025   YYZZ    -340.1282
      XZZZ    -103.4261   YZZZ       6.9757   ZZZZ   -1723.6756
 -----------------------------------------------------------------
Archival summary:
1\1\centos77-c5\SP\ProcedureUnspecified\BasisUnspecified\42(3)\shihchen\MonJul1315:38:172020MonJul1315:38:172020\0\\#,ProcedureUnspecified,BasisUnspecified,\\0,3\N\O,1,1.17831\O,1,1.22329,2,142.359\O,1,1.2385,2,99.7124,3,178.508,0\N,4,1.55017,1,130.58,2,3.86346,0\O,5,1.18026,4,123.624,1,95.6729,0\\\@

 Total job time:  16.50s(wall), 88.86s(cpu) 
 Mon Jul 13 15:38:17 2020

        *************************************************************
        *                                                           *
        *  Thank you very much for using Q-Chem.  Have a nice day.  *
        *                                                           *
        *************************************************************


