                  Welcome to Q-Chem
     A Quantum Leap Into The Future Of Chemistry


 Q-Chem 5.3 (devel), Q-Chem, Inc., Pleasanton, CA (2020)

 Yihan Shao,  Zhengting Gan,  E. Epifanovsky,  A. T. B. Gilbert,  M. Wormit,  
 J. Kussmann,  A. W. Lange,  A. Behn,  Jia Deng,  Xintian Feng,  D. Ghosh,  
 M. Goldey,  P. R. Horn,  L. D. Jacobson,  I. Kaliman,  T. Kus,  A. Landau,  
 Jie Liu,  E. I. Proynov,  R. M. Richard,  R. P. Steele,  E. J. Sundstrom,  
 H. L. Woodcock III,  P. M. Zimmerman,  D. Zuev,  B. Alam,  B. Albrecht,  
 E. Alguire,  S. A. Baeppler,  D. Barton,  Z. Benda,  Y. A. Bernard,  
 E. J. Berquist,  K. B. Bravaya,  H. Burton,  K. Carter-Fenk,  D. Casanova,  
 Chun-Min Chang,  Yunqing Chen,  A. Chien,  K. D. Closser,  M. P. Coons,  
 S. Coriani,  S. Dasgupta,  A. L. Dempwolff,  M. Diedenhofen,  Hainam Do,  
 R. G. Edgar,  Po-Tung Fang,  S. Faraji,  S. Fatehi,  Qingguo Feng,  
 J. Fosso-Tande,  J. Gayvert,  Qinghui Ge,  A. Ghysels,  G. Gidofalvi,  
 J. Gomes,  J. Gonthier,  A. Gunina,  D. Hait,  M. W. D. Hanson-Heine,  
 P. H. P. Harbach,  A. W. Hauser,  M. F. Herbst,  J. E. Herr,  
 E. G. Hohenstein,  Z. C. Holden,  Kerwin Hui,  B. C. Huynh,  T.-C. Jagau,  
 Hyunjun Ji,  B. Kaduk,  K. Khistyaev,  Jaehoon Kim,  P. Klunzinger,  K. Koh,  
 D. Kosenkov,  L. Koulias,  T. Kowalczyk,  C. M. Krauter,  A. Kunitsa,  
 Ka Un Lao,  A. Laurent,  K. V. Lawler,  Joonho Lee,  D. Lefrancois,  
 S. Lehtola,  D. S. Levine,  Yi-Pei Li,  You-Sheng Lin,  Fenglai Liu,  
 Kuan-Yu Liu,  E. Livshits,  M. Loipersberger,  A. Luenser,  P. Manohar,  
 E. Mansoor,  S. F. Manzer,  Shan-Ping Mao,  Yuezhi Mao,  N. Mardirossian,  
 A. V. Marenich,  T. Markovich,  L. A. Martinez-Martinez,  S. A. Maurer,  
 N. J. Mayhall,  S. C. McKenzie,  J.-M. Mewes,  P. Morgante,  A. F. Morrison,  
 J. W. Mullinax,  K. Nanda,  T. S. Nguyen-Beck,  R. Olivares-Amaya,  
 K. J. Oosterbaan,  J. A. Parkhill,  S. K. Paul,  F. Pavosevic,  Zheng Pei,  
 T. M. Perrine,  F. Plasser,  P. Pokhilko,  S. Prager,  A. Prociuk,  
 E. Ramos,  B. Rana,  D. R. Rehn,  F. Rob,  M. Scheurer,  M. Schneider,  
 N. Sergueev,  S. M. Sharada,  S. Sharma,  D. W. Small,  T. Stauch,  
 C. J. Stein,  T. Stein,  Yu-Chuan Su,  S. P. Veccham,  Zhen Tao,  
 A. J. W. Thom,  A. Tkatchenko,  T. Tsuchimochi,  N. M. Tubman,  L. Vogt,  
 M. L. Vidal,  O. Vydrov,  M. A. Watson,  J. Wenzel,  M. de Wergifosse,  
 T. A. Wesolowski,  A. White,  J. Witte,  A. Yamada,  Jun Yang,  K. Yao,  
 S. Yeganeh,  S. R. Yost,  Zhi-Qiang You,  A. Zech,  Igor Ying Zhang,  
 Xing Zhang,  Yan Zhao,  Ying Zhu,  B. R. Brooks,  G. K. L. Chan,  
 C. J. Cramer,  M. S. Gordon,  W. J. Hehre,  A. Klamt,  M. W. Schmidt,  
 C. D. Sherrill,  D. G. Truhlar,  A. Aspuru-Guzik,  R. Baer,  A. T. Bell,  
 N. A. Besley,  Jeng-Da Chai,  A. E. DePrince, III,  R. A. DiStasio Jr.,  
 A. Dreuw,  B. D. Dunietz,  T. R. Furlani,  Chao-Ping Hsu,  Yousung Jung,  
 Jing Kong,  D. S. Lambrecht,  WanZhen Liang,  C. Ochsenfeld,  
 V. A. Rassolov,  L. V. Slipchenko,  J. E. Subotnik,  T. Van Voorhis,  
 J. M. Herbert,  A. I. Krylov,  P. M. W. Gill,  M. Head-Gordon

 Contributors to earlier versions of Q-Chem not listed above: 
 R. D. Adamson,  B. Austin,  J. Baker,  G. J. O. Beran,  K. Brandhorst,  
 S. T. Brown,  E. F. C. Byrd,  A. K. Chakraborty,  C.-L. Cheng,  
 Siu Hung Chien,  D. M. Chipman,  D. L. Crittenden,  H. Dachsel,  
 R. J. Doerksen,  A. D. Dutoi,  L. Fusti-Molnar,  W. A. Goddard III,  
 A. Golubeva-Zadorozhnaya,  S. R. Gwaltney,  G. Hawkins,  A. Heyden,  
 S. Hirata,  G. Kedziora,  F. J. Keil,  C. Kelley,  Jihan Kim,  R. A. King,  
 R. Z. Khaliullin,  P. P. Korambath,  W. Kurlancheek,  A. M. Lee,  M. S. Lee,  
 S. V. Levchenko,  Ching Yeh Lin,  D. Liotard,  R. C. Lochan,  I. Lotan,  
 P. E. Maslen,  N. Nair,  D. P. O'Neill,  D. Neuhauser,  E. Neuscamman,  
 C. M. Oana,  R. Olson,  B. Peters,  R. Peverati,  P. A. Pieniazek,  
 Y. M. Rhee,  J. Ritchie,  M. A. Rohrdanz,  E. Rosta,  N. J. Russ,  
 H. F. Schaefer III,  N. E. Schultz,  N. Shenvi,  A. C. Simmonett,  A. Sodt,  
 D. Stuck,  K. S. Thanthiriwatte,  V. Vanovschi,  Tao Wang,  A. Warshel,  
 C. F. Williams,  Q. Wu,  X. Xu,  W. Zhang

 Please cite Q-Chem as follows:
 Y. Shao et al., Mol. Phys. 113, 184-215 (2015)
 DOI: 10.1080/00268976.2014.952696

 Q-Chem 5.3.0 for Intel X86 EM64T Linux

 Parts of Q-Chem use Armadillo 9.800.1 (Horizon Scraper).
 http://arma.sourceforge.net/

 Q-Chem begins on Mon Jul 13 15:29:57 2020  

Host: centos77-c5
0

     Scratch files written to /tmp/29025.centos77-h1/qchem82289//
Processing $rem in /opt/qchem-5.3.0-intel2020u1//config/preferences:
Processing $rem in /home/shihchengli/.qchemrc:

Checking the input file for inconsistencies... 	...done.

--------------------------------------------------------------
User input:
--------------------------------------------------------------
$rem
   JOBTYPE  sp
   EXCHANGE   omegaB97X-D
   BASIS   6-311+G(2df,2pd)
   UNRESTRICTED   True
   max_scf_cycles   250
   geom_opt_max_cycles   1500
   basis2 6-31G*
   scf_algorithm rca_diis
   SYM_IGNORE  TRUE
   print_input   true
   geom_opt_dmax   80
   pop_mulliken false
   XC_GRID 000075000302
$end

$molecule
0 3
N       0.6580360980     1.0821848419     2.5564836941
O       0.1834284079     2.0458875346     2.0083514149
O       1.6712213876     0.9264537736     3.1603580807
N       0.1759748259     -1.3133083263     3.1126764601
O       -0.5238632013     -0.8351617857     3.9105023411
O       -0.2198063880     0.1889330719     2.3519278991
$end
--------------------------------------------------------------
 ----------------------------------------------------------------
             Standard Nuclear Orientation (Angstroms)
    I     Atom           X                Y                Z
 ----------------------------------------------------------------
    1      N       0.6580360980     1.0821848419     2.5564836941
    2      O       0.1834284079     2.0458875346     2.0083514149
    3      O       1.6712213876     0.9264537736     3.1603580807
    4      N       0.1759748259    -1.3133083263     3.1126764601
    5      O      -0.5238632013    -0.8351617857     3.9105023411
    6      O      -0.2198063880     0.1889330719     2.3519278991
 ----------------------------------------------------------------
 Nuclear Repulsion Energy =         244.09654635 hartrees
 There are       24 alpha and       22 beta electrons
 Requested basis set is 6-311+G(2df,2pd)
 There are 48 shells and 204 basis functions

 Total QAlloc Memory Limit   2000 MB
 Mega-Array Size       188 MB
 MEM_STATIC part       192 MB

                       Distance Matrix (Angstroms)
             N (  1)   O (  2)   O (  3)   N (  4)   O (  5)
   O (  2)  1.205995
   O (  3)  1.189731  2.189470
   N (  4)  2.506017  3.536069  2.693431
   O (  5)  2.628016  3.524044  2.912800  1.164012
   O (  6)  1.268995  1.931042  2.184830  1.729772  1.889544
 
 A cutoff of  1.0D-09 yielded   1065 shell pairs
 There are     19812 function pairs (     26065 Cartesian)
 Smallest overlap matrix eigenvalue = 6.53E-04

 Scale SEOQF with 1.000000e-01/1.000000e-01/1.000000e-01

 Standard Electronic Orientation quadrupole field applied
 Nucleus-field energy     =    -0.0000000363 hartrees
 Requested basis set is 6-31G(d)
 There are 24 shells and 84 basis functions
 A cutoff of  1.0D-09 yielded    275 shell pairs
 There are      3617 function pairs (      4166 Cartesian)
 Smallest overlap matrix eigenvalue = 4.47E-03
 Guess from superposition of atomic densities
 Warning:  Energy on first SCF cycle will be non-variational
 SAD guess density has 46.000000 electrons
 Long-range K will be added via erf
 Coulomb attenuation parameter = 0.2 bohr**(-1)
 An unrestricted hybrid HF-DFT SCF calculation will be
 performed using Relaxed Constraint Minimization + Pulay DIIS
 Exchange:     0.2220 Hartree-Fock + 1.0000 wB97X-D + LR-HF
 Correlation:  1.0000 wB97X-D
 Using Euler-Maclaurin-Lebedev (75,302) quadrature formula
 Dispersion:   Grimme D
 SCF converges when DIIS error is below 1.0E-04
 using 6 threads for integral computing
 -------------------------------------------------------
 OpenMP Integral computing Module                
 Release: version 1.0, May 2013, Q-Chem Inc. Pittsburgh 
 -------------------------------------------------------
 using 6 threads for integral computing
 -------------------------------------------------------
 OpenMP Integral computing Module                
 Release: version 1.0, May 2013, Q-Chem Inc. Pittsburgh 
 -------------------------------------------------------
 ---------------------------------------
  Cycle       Energy         DIIS Error
 ---------------------------------------
    1    -411.3062867938      9.38E-02
    2    -409.6223625515      1.93E-02
    3    -409.7242252878      4.35E-03
    4    -409.8700632890      4.06E-03
    5    -409.8748405632      4.93E-04 Done RCA. Switching to DIIS
    6    -409.8810051406      3.04E-04
    7    -409.8812049519      1.66E-04
    8    -409.8812889681      7.93E-05 Convergence criterion met
 ---------------------------------------
 <S^2> = 2.0203
 SCF time:  CPU 15.08 s  wall 2.53 s
 SCF   energy in the small basis set = -409.88128897
 Total energy in the small basis set = -409.88128897
 ----------------------------------------------------
  Cycle       Energy    
 ----------------------------------------------------
    1     -41.8572568070     -4.19E+01
 Long-range K will be added via erf
 Coulomb attenuation parameter = 0.2 bohr**(-1)
 An unrestricted hybrid HF-DFT SCF calculation will be
 performed using Relaxed Constraint Minimization + Pulay DIIS
 Exchange:     0.2220 Hartree-Fock + 1.0000 wB97X-D + LR-HF
 Correlation:  1.0000 wB97X-D
 Using Euler-Maclaurin-Lebedev (75,302) quadrature formula
 Dispersion:   Grimme D
 SCF converges when DIIS error is below 1.0E-05
 Basis2 calculation detected. Using small basis as guess for larger.
 SCFMinFind is unable to tell whether the solution found is close.
 Resetting ReadMinima to 0 and attempting to follow guess.
 SCFMinFind following SCF Guess.
 using 6 threads for integral computing
 -------------------------------------------------------
 OpenMP Integral computing Module                
 Release: version 1.0, May 2013, Q-Chem Inc. Pittsburgh 
 -------------------------------------------------------
 using 6 threads for integral computing
 -------------------------------------------------------
 OpenMP Integral computing Module                
 Release: version 1.0, May 2013, Q-Chem Inc. Pittsburgh 
 -------------------------------------------------------
 ---------------------------------------
  Cycle       Energy         DIIS Error
 ---------------------------------------
    1    -409.9707968944      8.04E-03
    2    -409.9813755480      4.08E-03
    3    -410.0017663557      1.20E-03
    4    -410.0311421285      1.18E-03
    5    -410.0334103872      1.76E-04 Done RCA. Switching to DIIS
    6    -410.0366541849      1.67E-04
    7    -410.0368227171      5.84E-05
    8    -410.0369130057      2.53E-05
    9    -410.0369567580      1.96E-05
   10    -410.0369761069      1.12E-05
   11    -410.0369812770      3.68E-06 Convergence criterion met
 ---------------------------------------
 <S^2> = 2.0235
 SCF time:  CPU 75.97 s  wall 12.69 s
 SCF   energy in the final basis set = -410.03698128
 Total energy in the final basis set = -410.03698128
 
 --------------------------------------------------------------
 
                    Orbital Energies (a.u.)
 --------------------------------------------------------------
 
 Alpha MOs
 -- Occupied --
-19.4183 -19.4024 -19.3507 -19.3473 -14.7817 -14.5993  -1.4879  -1.3904
 -1.2748  -1.2274  -0.8562  -0.8045  -0.7486  -0.7274  -0.7034  -0.6571
 -0.6275  -0.6086  -0.5312  -0.5003  -0.4681  -0.4648  -0.4332  -0.3331
 -- Virtual --
 -0.0367  -0.0072   0.0898   0.1236   0.1327   0.1351   0.1683   0.1776
  0.1846   0.2146   0.2329   0.2415   0.2525   0.2610   0.2804   0.2943
  0.3041   0.3221   0.3359   0.3499   0.3599   0.3650   0.3740   0.3859
  0.4129   0.4393   0.4586   0.4636   0.4876   0.5239   0.7322   0.7626
  0.7966   0.8073   0.8338   0.8619   0.9400   0.9655   0.9801   1.0205
  1.0232   1.0325   1.0531   1.0717   1.0915   1.0973   1.1119   1.1311
  1.1511   1.1667   1.1802   1.1894   1.2096   1.2437   1.2487   1.3077
  1.4147   1.4693   1.5232   1.5355   1.5647   1.5760   1.6050   1.6272
  1.6376   1.7057   1.7748   1.8166   1.8434   1.9235   1.9591   2.0461
  2.0749   2.1520   2.2212   2.2808   2.3398   2.4019   2.4867   2.5087
  2.5383   2.5694   2.7243   2.8139   3.5376   3.5540   3.5895   3.6223
  3.6423   3.6681   3.6941   3.7066   3.7749   3.7785   3.8199   3.9287
  3.9779   4.0000   4.0337   4.1203   4.2728   4.3792   4.4213   4.4892
  4.5344   4.5767   4.6181   4.6207   4.6459   4.6701   4.7087   4.7380
  4.8411   4.9308   4.9551   4.9942   5.0163   5.0368   5.0381   5.0503
  5.0741   5.0861   5.1074   5.1155   5.1516   5.1618   5.1724   5.1899
  5.2165   5.2947   5.3198   5.3703   5.3988   5.4323   5.4650   5.5366
  5.5535   5.6262   5.6634   5.7361   5.8685   5.9568   6.0879   6.1986
  6.5522   6.5772   6.6667   6.6754   6.7176   6.7309   6.7696   6.7972
  6.8087   6.8388   6.8729   6.8884   7.0230   7.0727   7.1135   7.1687
  7.1873   7.2202   7.2553   7.3221   7.3391   7.4365   7.5068   7.6493
  7.6826   7.7814   7.9085   7.9472   8.0598   8.2653  36.0070  36.2310
 50.0765  50.2041  50.2540  50.2676
 
 Beta MOs
 -- Occupied --
-19.4026 -19.3831 -19.3477 -19.3445 -14.7823 -14.5866  -1.4754  -1.3542
 -1.2674  -1.1985  -0.8158  -0.7687  -0.7353  -0.7162  -0.6829  -0.6032
 -0.5789  -0.5591  -0.4960  -0.4750  -0.4596  -0.4404
 -- Virtual --
 -0.1368  -0.0228  -0.0006   0.0189   0.0924   0.1283   0.1353   0.1396
  0.1701   0.1819   0.1902   0.2185   0.2401   0.2467   0.2566   0.2636
  0.2816   0.2979   0.3104   0.3242   0.3379   0.3520   0.3633   0.3673
  0.3768   0.3907   0.4197   0.4417   0.4612   0.4682   0.5062   0.5327
  0.7397   0.7661   0.8068   0.8226   0.8503   0.8694   0.9459   0.9707
  0.9879   1.0293   1.0316   1.0429   1.0622   1.0831   1.1037   1.1068
  1.1180   1.1432   1.1642   1.1839   1.1937   1.2007   1.2256   1.2567
  1.2610   1.3224   1.4278   1.4858   1.5312   1.5485   1.5755   1.5840
  1.6221   1.6454   1.6549   1.7120   1.7820   1.8321   1.8540   1.9323
  1.9649   2.0596   2.0920   2.1714   2.2271   2.2948   2.3537   2.4122
  2.5007   2.5206   2.5511   2.5743   2.7349   2.8194   3.5504   3.5736
  3.6090   3.6419   3.6502   3.6782   3.7012   3.7173   3.7829   3.8346
  3.8506   3.9394   4.0012   4.0119   4.0470   4.1312   4.2800   4.3856
  4.4256   4.4960   4.5354   4.5850   4.6318   4.6425   4.6650   4.6911
  4.7379   4.7627   4.8822   4.9713   4.9823   5.0218   5.0416   5.0438
  5.0511   5.0793   5.1010   5.1027   5.1227   5.1295   5.1741   5.1874
  5.1989   5.2046   5.2353   5.3220   5.3386   5.3929   5.4282   5.4370
  5.4905   5.5647   5.5696   5.6376   5.6882   5.7434   5.8764   5.9957
  6.1017   6.2086   6.5719   6.5860   6.7041   6.7157   6.7656   6.7690
  6.7866   6.8195   6.8389   6.8602   6.8788   6.8949   7.0492   7.1084
  7.1405   7.1748   7.2192   7.2353   7.2628   7.3464   7.3598   7.4589
  7.5419   7.6677   7.7123   7.8052   7.9149   7.9708   8.0724   8.2732
 36.0225  36.2306  50.0897  50.2211  50.2590  50.2713
 --------------------------------------------------------------
 
 -----------------------------------------------------------------
                    Cartesian Multipole Moments
 -----------------------------------------------------------------
    Charge (ESU x 10^10)
                -0.0000
    Dipole Moment (Debye)
         X      -0.3880      Y      -0.7867      Z       0.1186
       Tot       0.8852
    Quadrupole Moments (Debye-Ang)
        XX     -33.6772     XY      -0.3731     YY     -33.6940
        XZ      -2.1925     YZ      -1.7924     ZZ     -30.7864
    Octopole Moments (Debye-Ang^2)
       XXX     -35.2236    XXY     -12.6424    XYY     -12.0978
       YYY     -40.1444    XXZ     -97.8321    XYZ      -2.1485
       YYZ     -91.2077    XZZ     -18.6873    YZZ     -15.9076
       ZZZ    -266.0036
    Hexadecapole Moments (Debye-Ang^3)
      XXXX    -145.6334   XXXY     -47.6429   XXYY     -76.2649
      XYYY     -46.6478   YYYY    -313.7927   XXXZ     -99.2799
      XXYZ     -21.0860   XYYZ     -33.4266   YYYZ     -62.9212
      XXZZ    -322.5837   XYZZ     -23.9044   YYZZ    -312.9945
      XZZZ    -112.5389   YZZZ     -62.4468   ZZZZ   -1617.3224
 -----------------------------------------------------------------
Archival summary:
1\1\centos77-c5\SP\ProcedureUnspecified\BasisUnspecified\42(3)\shihchen\MonJul1315:30:152020MonJul1315:30:152020\0\\#,ProcedureUnspecified,BasisUnspecified,\\0,3\N\O,1,1.18973\O,1,1.206,2,132.101\O,1,1.269,2,125.365,3,-179.415,0\N,4,1.72977,1,112.466,2,2.37047,0\O,5,1.16401,4,78.88,1,95.6949,0\\\@

 Total job time:  17.76s(wall), 95.34s(cpu) 
 Mon Jul 13 15:30:15 2020

        *************************************************************
        *                                                           *
        *  Thank you very much for using Q-Chem.  Have a nice day.  *
        *                                                           *
        *************************************************************


