                  Welcome to Q-Chem
     A Quantum Leap Into The Future Of Chemistry


 Q-Chem 5.3 (devel), Q-Chem, Inc., Pleasanton, CA (2020)

 Yihan Shao,  Zhengting Gan,  E. Epifanovsky,  A. T. B. Gilbert,  M. Wormit,  
 J. Kussmann,  A. W. Lange,  A. Behn,  Jia Deng,  Xintian Feng,  D. Ghosh,  
 M. Goldey,  P. R. Horn,  L. D. Jacobson,  I. Kaliman,  T. Kus,  A. Landau,  
 Jie Liu,  E. I. Proynov,  R. M. Richard,  R. P. Steele,  E. J. Sundstrom,  
 H. L. Woodcock III,  P. M. Zimmerman,  D. Zuev,  B. Alam,  B. Albrecht,  
 E. Alguire,  S. A. Baeppler,  D. Barton,  Z. Benda,  Y. A. Bernard,  
 E. J. Berquist,  K. B. Bravaya,  H. Burton,  K. Carter-Fenk,  D. Casanova,  
 Chun-Min Chang,  Yunqing Chen,  A. Chien,  K. D. Closser,  M. P. Coons,  
 S. Coriani,  S. Dasgupta,  A. L. Dempwolff,  M. Diedenhofen,  Hainam Do,  
 R. G. Edgar,  Po-Tung Fang,  S. Faraji,  S. Fatehi,  Qingguo Feng,  
 J. Fosso-Tande,  J. Gayvert,  Qinghui Ge,  A. Ghysels,  G. Gidofalvi,  
 J. Gomes,  J. Gonthier,  A. Gunina,  D. Hait,  M. W. D. Hanson-Heine,  
 P. H. P. Harbach,  A. W. Hauser,  M. F. Herbst,  J. E. Herr,  
 E. G. Hohenstein,  Z. C. Holden,  Kerwin Hui,  B. C. Huynh,  T.-C. Jagau,  
 Hyunjun Ji,  B. Kaduk,  K. Khistyaev,  Jaehoon Kim,  P. Klunzinger,  K. Koh,  
 D. Kosenkov,  L. Koulias,  T. Kowalczyk,  C. M. Krauter,  A. Kunitsa,  
 Ka Un Lao,  A. Laurent,  K. V. Lawler,  Joonho Lee,  D. Lefrancois,  
 S. Lehtola,  D. S. Levine,  Yi-Pei Li,  You-Sheng Lin,  Fenglai Liu,  
 Kuan-Yu Liu,  E. Livshits,  M. Loipersberger,  A. Luenser,  P. Manohar,  
 E. Mansoor,  S. F. Manzer,  Shan-Ping Mao,  Yuezhi Mao,  N. Mardirossian,  
 A. V. Marenich,  T. Markovich,  L. A. Martinez-Martinez,  S. A. Maurer,  
 N. J. Mayhall,  S. C. McKenzie,  J.-M. Mewes,  P. Morgante,  A. F. Morrison,  
 J. W. Mullinax,  K. Nanda,  T. S. Nguyen-Beck,  R. Olivares-Amaya,  
 K. J. Oosterbaan,  J. A. Parkhill,  S. K. Paul,  F. Pavosevic,  Zheng Pei,  
 T. M. Perrine,  F. Plasser,  P. Pokhilko,  S. Prager,  A. Prociuk,  
 E. Ramos,  B. Rana,  D. R. Rehn,  F. Rob,  M. Scheurer,  M. Schneider,  
 N. Sergueev,  S. M. Sharada,  S. Sharma,  D. W. Small,  T. Stauch,  
 C. J. Stein,  T. Stein,  Yu-Chuan Su,  S. P. Veccham,  Zhen Tao,  
 A. J. W. Thom,  A. Tkatchenko,  T. Tsuchimochi,  N. M. Tubman,  L. Vogt,  
 M. L. Vidal,  O. Vydrov,  M. A. Watson,  J. Wenzel,  M. de Wergifosse,  
 T. A. Wesolowski,  A. White,  J. Witte,  A. Yamada,  Jun Yang,  K. Yao,  
 S. Yeganeh,  S. R. Yost,  Zhi-Qiang You,  A. Zech,  Igor Ying Zhang,  
 Xing Zhang,  Yan Zhao,  Ying Zhu,  B. R. Brooks,  G. K. L. Chan,  
 C. J. Cramer,  M. S. Gordon,  W. J. Hehre,  A. Klamt,  M. W. Schmidt,  
 C. D. Sherrill,  D. G. Truhlar,  A. Aspuru-Guzik,  R. Baer,  A. T. Bell,  
 N. A. Besley,  Jeng-Da Chai,  A. E. DePrince, III,  R. A. DiStasio Jr.,  
 A. Dreuw,  B. D. Dunietz,  T. R. Furlani,  Chao-Ping Hsu,  Yousung Jung,  
 Jing Kong,  D. S. Lambrecht,  WanZhen Liang,  C. Ochsenfeld,  
 V. A. Rassolov,  L. V. Slipchenko,  J. E. Subotnik,  T. Van Voorhis,  
 J. M. Herbert,  A. I. Krylov,  P. M. W. Gill,  M. Head-Gordon

 Contributors to earlier versions of Q-Chem not listed above: 
 R. D. Adamson,  B. Austin,  J. Baker,  G. J. O. Beran,  K. Brandhorst,  
 S. T. Brown,  E. F. C. Byrd,  A. K. Chakraborty,  C.-L. Cheng,  
 Siu Hung Chien,  D. M. Chipman,  D. L. Crittenden,  H. Dachsel,  
 R. J. Doerksen,  A. D. Dutoi,  L. Fusti-Molnar,  W. A. Goddard III,  
 A. Golubeva-Zadorozhnaya,  S. R. Gwaltney,  G. Hawkins,  A. Heyden,  
 S. Hirata,  G. Kedziora,  F. J. Keil,  C. Kelley,  Jihan Kim,  R. A. King,  
 R. Z. Khaliullin,  P. P. Korambath,  W. Kurlancheek,  A. M. Lee,  M. S. Lee,  
 S. V. Levchenko,  Ching Yeh Lin,  D. Liotard,  R. C. Lochan,  I. Lotan,  
 P. E. Maslen,  N. Nair,  D. P. O'Neill,  D. Neuhauser,  E. Neuscamman,  
 C. M. Oana,  R. Olson,  B. Peters,  R. Peverati,  P. A. Pieniazek,  
 Y. M. Rhee,  J. Ritchie,  M. A. Rohrdanz,  E. Rosta,  N. J. Russ,  
 H. F. Schaefer III,  N. E. Schultz,  N. Shenvi,  A. C. Simmonett,  A. Sodt,  
 D. Stuck,  K. S. Thanthiriwatte,  V. Vanovschi,  Tao Wang,  A. Warshel,  
 C. F. Williams,  Q. Wu,  X. Xu,  W. Zhang

 Please cite Q-Chem as follows:
 Y. Shao et al., Mol. Phys. 113, 184-215 (2015)
 DOI: 10.1080/00268976.2014.952696

 Q-Chem 5.3.0 for Intel X86 EM64T Linux

 Parts of Q-Chem use Armadillo 9.800.1 (Horizon Scraper).
 http://arma.sourceforge.net/

 Q-Chem begins on Mon Jul 13 15:27:41 2020  

Host: centos77-c5
0

     Scratch files written to /tmp/29025.centos77-h1/qchem42166//
Processing $rem in /opt/qchem-5.3.0-intel2020u1//config/preferences:
Processing $rem in /home/shihchengli/.qchemrc:

Checking the input file for inconsistencies... 	...done.

--------------------------------------------------------------
User input:
--------------------------------------------------------------
$rem
   JOBTYPE  sp
   EXCHANGE   omegaB97X-D
   BASIS   6-311+G(2df,2pd)
   UNRESTRICTED   True
   max_scf_cycles   250
   geom_opt_max_cycles   1500
   basis2 6-31G*
   scf_algorithm rca_diis
   SYM_IGNORE  TRUE
   print_input   true
   geom_opt_dmax   80
   pop_mulliken false
   XC_GRID 000075000302
$end

$molecule
0 3
N       0.9276067310     1.3395087124     2.5025620410
O       0.0990313593     1.9449322604     1.9071161130
O       2.0129064836     1.6012495076     2.8697881910
N       -0.2770558286     -1.3168463123     3.0967725530
O       -0.9275400773     -1.5697356701     4.0649678190
O       0.1100424621     0.0958806119     2.6590931731
$end
--------------------------------------------------------------
 ----------------------------------------------------------------
             Standard Nuclear Orientation (Angstroms)
    I     Atom           X                Y                Z
 ----------------------------------------------------------------
    1      N       0.9276067310     1.3395087124     2.5025620410
    2      O       0.0990313593     1.9449322604     1.9071161130
    3      O       2.0129064836     1.6012495076     2.8697881910
    4      N      -0.2770558286    -1.3168463123     3.0967725530
    5      O      -0.9275400773    -1.5697356701     4.0649678190
    6      O       0.1100424621     0.0958806119     2.6590931731
 ----------------------------------------------------------------
 Nuclear Repulsion Energy =         223.22882353 hartrees
 There are       24 alpha and       22 beta electrons
 Requested basis set is 6-311+G(2df,2pd)
 There are 48 shells and 204 basis functions

 Total QAlloc Memory Limit   2000 MB
 Mega-Array Size       188 MB
 MEM_STATIC part       192 MB

                       Distance Matrix (Angstroms)
             N (  1)   O (  2)   O (  3)   N (  4)   O (  5)
   O (  2)  1.186436
   O (  3)  1.175261  2.169740
   N (  4)  2.976663  3.492266  3.716279
   O (  5)  3.787662  4.250066  4.486628  1.193518
   O (  6)  1.496504  1.996142  2.435451  1.528792  2.413988
 
 A cutoff of  1.0D-09 yielded    984 shell pairs
 There are     18222 function pairs (     23797 Cartesian)
 Smallest overlap matrix eigenvalue = 7.89E-04

 Scale SEOQF with 1.000000e-01/1.000000e-01/1.000000e-01

 Standard Electronic Orientation quadrupole field applied
 Nucleus-field energy     =    -0.0000000338 hartrees
 Requested basis set is 6-31G(d)
 There are 24 shells and 84 basis functions
 A cutoff of  1.0D-09 yielded    253 shell pairs
 There are      3349 function pairs (      3846 Cartesian)
 Smallest overlap matrix eigenvalue = 5.02E-03
 Guess from superposition of atomic densities
 Warning:  Energy on first SCF cycle will be non-variational
 SAD guess density has 46.000000 electrons
 Long-range K will be added via erf
 Coulomb attenuation parameter = 0.2 bohr**(-1)
 An unrestricted hybrid HF-DFT SCF calculation will be
 performed using Relaxed Constraint Minimization + Pulay DIIS
 Exchange:     0.2220 Hartree-Fock + 1.0000 wB97X-D + LR-HF
 Correlation:  1.0000 wB97X-D
 Using Euler-Maclaurin-Lebedev (75,302) quadrature formula
 Dispersion:   Grimme D
 SCF converges when DIIS error is below 1.0E-04
 using 6 threads for integral computing
 -------------------------------------------------------
 OpenMP Integral computing Module                
 Release: version 1.0, May 2013, Q-Chem Inc. Pittsburgh 
 -------------------------------------------------------
 using 6 threads for integral computing
 -------------------------------------------------------
 OpenMP Integral computing Module                
 Release: version 1.0, May 2013, Q-Chem Inc. Pittsburgh 
 -------------------------------------------------------
 ---------------------------------------
  Cycle       Energy         DIIS Error
 ---------------------------------------
    1    -411.0040577282      8.74E-02
    2    -409.6121620393      1.89E-02
    3    -409.7131512397      4.36E-03
    4    -409.8571373959      4.71E-03
    5    -409.8635088602      7.32E-04 Done RCA. Switching to DIIS
    6    -409.8721776892      6.58E-04
    7    -409.8726840081      1.87E-04
    8    -409.8727738538      6.33E-05 Convergence criterion met
 ---------------------------------------
 <S^2> = 2.0198
 SCF time:  CPU 13.55 s  wall 2.27 s
 SCF   energy in the small basis set = -409.87277385
 Total energy in the small basis set = -409.87277385
 ----------------------------------------------------
  Cycle       Energy    
 ----------------------------------------------------
    1     -41.7371137546     -4.17E+01
 Long-range K will be added via erf
 Coulomb attenuation parameter = 0.2 bohr**(-1)
 An unrestricted hybrid HF-DFT SCF calculation will be
 performed using Relaxed Constraint Minimization + Pulay DIIS
 Exchange:     0.2220 Hartree-Fock + 1.0000 wB97X-D + LR-HF
 Correlation:  1.0000 wB97X-D
 Using Euler-Maclaurin-Lebedev (75,302) quadrature formula
 Dispersion:   Grimme D
 SCF converges when DIIS error is below 1.0E-05
 Basis2 calculation detected. Using small basis as guess for larger.
 SCFMinFind is unable to tell whether the solution found is close.
 Resetting ReadMinima to 0 and attempting to follow guess.
 SCFMinFind following SCF Guess.
 using 6 threads for integral computing
 -------------------------------------------------------
 OpenMP Integral computing Module                
 Release: version 1.0, May 2013, Q-Chem Inc. Pittsburgh 
 -------------------------------------------------------
 using 6 threads for integral computing
 -------------------------------------------------------
 OpenMP Integral computing Module                
 Release: version 1.0, May 2013, Q-Chem Inc. Pittsburgh 
 -------------------------------------------------------
 ---------------------------------------
  Cycle       Energy         DIIS Error
 ---------------------------------------
    1    -409.9631690249      8.03E-03
    2    -409.9699211551      4.21E-03
    3    -409.9921734569      1.12E-03
    4    -410.0228400605      1.19E-03
    5    -410.0251248129      1.51E-04 Done RCA. Switching to DIIS
    6    -410.0284122025      1.63E-04
    7    -410.0285890631      5.78E-05
    8    -410.0286725722      2.58E-05
    9    -410.0287518559      1.68E-05
   10    -410.0288051506      1.41E-05
   11    -410.0288306784      6.83E-06 Convergence criterion met
 ---------------------------------------
 <S^2> = 2.0221
 SCF time:  CPU 65.70 s  wall 10.98 s
 SCF   energy in the final basis set = -410.02883068
 Total energy in the final basis set = -410.02883068
 
 --------------------------------------------------------------
 
                    Orbital Energies (a.u.)
 --------------------------------------------------------------
 
 Alpha MOs
 -- Occupied --
-19.3767 -19.3746 -19.3746 -19.3723 -14.7729 -14.6127  -1.4513  -1.3354
 -1.2851  -1.1703  -0.8963  -0.7686  -0.7245  -0.7210  -0.6907  -0.6327
 -0.6135  -0.5796  -0.5295  -0.4893  -0.4709  -0.4583  -0.4172  -0.3197
 -- Virtual --
 -0.0424  -0.0294   0.0824   0.1177   0.1288   0.1353   0.1503   0.1617
  0.1798   0.1893   0.2115   0.2330   0.2491   0.2590   0.2760   0.2850
  0.2941   0.3259   0.3280   0.3411   0.3431   0.3625   0.3815   0.3887
  0.4040   0.4247   0.4619   0.4644   0.5329   0.5420   0.7739   0.7823
  0.8127   0.8312   0.8430   0.8678   0.9338   0.9496   0.9912   1.0326
  1.0376   1.0463   1.0532   1.0757   1.0800   1.0830   1.1028   1.1177
  1.1276   1.1365   1.1603   1.2040   1.2501   1.3260   1.3494   1.4057
  1.4782   1.4821   1.5243   1.5453   1.5557   1.5637   1.5822   1.6013
  1.6365   1.6636   1.7027   1.7606   1.8068   1.8394   1.9257   1.9974
  2.0386   2.0948   2.1508   2.2249   2.2952   2.4293   2.4609   2.4852
  2.5100   2.5904   2.6429   2.7451   3.4616   3.5287   3.5576   3.6057
  3.6414   3.6523   3.6731   3.7160   3.7375   3.7812   3.8178   3.8716
  3.9290   3.9983   4.0687   4.1182   4.3140   4.4191   4.4581   4.4632
  4.5510   4.6528   4.6817   4.7048   4.7274   4.7573   4.7667   4.8226
  4.9192   4.9849   4.9995   5.0142   5.0187   5.0258   5.0396   5.0452
  5.0520   5.0564   5.0746   5.1118   5.1130   5.1229   5.1361   5.1883
  5.2093   5.2432   5.2705   5.3404   5.3885   5.4267   5.4448   5.5067
  5.5188   5.5528   5.5930   5.6580   5.7479   5.8776   6.0041   6.1388
  6.4307   6.5380   6.5642   6.6983   6.7278   6.7424   6.7489   6.7801
  6.7836   6.7970   6.8261   6.8576   6.8926   6.9663   7.1258   7.1488
  7.1612   7.1713   7.2265   7.2377   7.2968   7.3662   7.4178   7.4934
  7.5937   7.6604   7.8081   7.8505   8.1422   8.2979  35.8819  36.1487
 49.9649  50.1481  50.2205  50.2538
 
 Beta MOs
 -- Occupied --
-19.3743 -19.3668 -19.3639 -19.3603 -14.7715 -14.5953  -1.4447  -1.2991
 -1.2774  -1.1386  -0.8594  -0.7501  -0.7177  -0.6894  -0.6827  -0.5707
 -0.5601  -0.5396  -0.4862  -0.4789  -0.4482  -0.4332
 -- Virtual --
 -0.1394  -0.0319  -0.0194   0.0236   0.0859   0.1228   0.1325   0.1389
  0.1647   0.1773   0.1857   0.2005   0.2151   0.2352   0.2524   0.2618
  0.2791   0.2881   0.3026   0.3277   0.3301   0.3438   0.3457   0.3661
  0.3854   0.3940   0.4130   0.4390   0.4640   0.4774   0.5372   0.5514
  0.7777   0.7961   0.8201   0.8458   0.8590   0.8797   0.9398   0.9554
  1.0008   1.0402   1.0469   1.0555   1.0654   1.0847   1.0959   1.1021
  1.1140   1.1329   1.1414   1.1453   1.1712   1.2145   1.2614   1.3349
  1.3591   1.4133   1.4914   1.4972   1.5276   1.5553   1.5621   1.5778
  1.5955   1.6168   1.6518   1.6837   1.7116   1.7794   1.8143   1.8478
  1.9332   2.0123   2.0488   2.1124   2.1604   2.2454   2.3039   2.4395
  2.4737   2.4997   2.5145   2.5955   2.6557   2.7516   3.4803   3.5543
  3.5830   3.6311   3.6506   3.6558   3.6860   3.7236   3.7634   3.8401
  3.8512   3.8885   3.9562   4.0044   4.0831   4.1347   4.3213   4.4241
  4.4629   4.4668   4.5787   4.6621   4.6996   4.7455   4.7666   4.7766
  4.8027   4.8623   4.9473   5.0101   5.0169   5.0220   5.0298   5.0429
  5.0585   5.0658   5.0810   5.0845   5.0920   5.1201   5.1280   5.1502
  5.1665   5.2027   5.2263   5.2672   5.2905   5.3603   5.4005   5.4452
  5.4644   5.5171   5.5285   5.5684   5.6108   5.6800   5.7605   5.8916
  6.0174   6.1549   6.4439   6.5441   6.6029   6.7275   6.7437   6.7656
  6.7846   6.8078   6.8218   6.8289   6.8466   6.8800   6.9097   6.9709
  7.1357   7.1655   7.1815   7.2059   7.2368   7.2454   7.3129   7.3836
  7.4398   7.5112   7.6113   7.6855   7.8138   7.8575   8.1685   8.3051
 35.9032  36.1506  49.9759  50.1634  50.2254  50.2542
 --------------------------------------------------------------
 
 -----------------------------------------------------------------
                    Cartesian Multipole Moments
 -----------------------------------------------------------------
    Charge (ESU x 10^10)
                 0.0000
    Dipole Moment (Debye)
         X       0.5626      Y       0.2465      Z      -0.1238
       Tot       0.6266
    Quadrupole Moments (Debye-Ang)
        XX     -33.0349     XY      -0.2989     YY     -32.3873
        XZ       1.1578     YZ       2.1066     ZZ     -32.5887
    Octopole Moments (Debye-Ang^2)
       XXX     -34.1592    XXY     -12.4730    XYY     -10.6544
       YYY     -34.1727    XXZ     -96.4034    XYZ      -2.8828
       YYZ     -91.9960    XZZ      -6.0211    YZZ       0.9070
       ZZZ    -276.6972
    Hexadecapole Moments (Debye-Ang^3)
      XXXX    -217.9688   XXXY    -108.7385   XXYY    -108.2737
      XYYY    -103.2860   YYYY    -417.0750   XXXZ     -73.7977
      XXYZ     -12.5801   XYYZ     -21.1441   YYYZ     -19.3310
      XXZZ    -332.2896   XYZZ     -47.7177   YYZZ    -350.4298
      XZZZ     -42.2825   YZZZ      34.4365   ZZZZ   -1682.5416
 -----------------------------------------------------------------
Archival summary:
1\1\centos77-c5\SP\ProcedureUnspecified\BasisUnspecified\42(3)\shihchen\MonJul1315:27:562020MonJul1315:27:562020\0\\#,ProcedureUnspecified,BasisUnspecified,\\0,3\N\O,1,1.17526\O,1,1.18644,2,133.479\O,1,1.4965,2,131.063,3,-178.961,0\N,4,1.52879,1,159.424,2,2.05766,0\O,5,1.19352,4,124.475,1,95.6949,0\\\@

 Total job time:  15.42s(wall), 83.11s(cpu) 
 Mon Jul 13 15:27:56 2020

        *************************************************************
        *                                                           *
        *  Thank you very much for using Q-Chem.  Have a nice day.  *
        *                                                           *
        *************************************************************


