                  Welcome to Q-Chem
     A Quantum Leap Into The Future Of Chemistry


 Q-Chem 5.3 (devel), Q-Chem, Inc., Pleasanton, CA (2020)

 Yihan Shao,  Zhengting Gan,  E. Epifanovsky,  A. T. B. Gilbert,  M. Wormit,  
 J. Kussmann,  A. W. Lange,  A. Behn,  Jia Deng,  Xintian Feng,  D. Ghosh,  
 M. Goldey,  P. R. Horn,  L. D. Jacobson,  I. Kaliman,  T. Kus,  A. Landau,  
 Jie Liu,  E. I. Proynov,  R. M. Richard,  R. P. Steele,  E. J. Sundstrom,  
 H. L. Woodcock III,  P. M. Zimmerman,  D. Zuev,  B. Alam,  B. Albrecht,  
 E. Alguire,  S. A. Baeppler,  D. Barton,  Z. Benda,  Y. A. Bernard,  
 E. J. Berquist,  K. B. Bravaya,  H. Burton,  K. Carter-Fenk,  D. Casanova,  
 Chun-Min Chang,  Yunqing Chen,  A. Chien,  K. D. Closser,  M. P. Coons,  
 S. Coriani,  S. Dasgupta,  A. L. Dempwolff,  M. Diedenhofen,  Hainam Do,  
 R. G. Edgar,  Po-Tung Fang,  S. Faraji,  S. Fatehi,  Qingguo Feng,  
 J. Fosso-Tande,  J. Gayvert,  Qinghui Ge,  A. Ghysels,  G. Gidofalvi,  
 J. Gomes,  J. Gonthier,  A. Gunina,  D. Hait,  M. W. D. Hanson-Heine,  
 P. H. P. Harbach,  A. W. Hauser,  M. F. Herbst,  J. E. Herr,  
 E. G. Hohenstein,  Z. C. Holden,  Kerwin Hui,  B. C. Huynh,  T.-C. Jagau,  
 Hyunjun Ji,  B. Kaduk,  K. Khistyaev,  Jaehoon Kim,  P. Klunzinger,  K. Koh,  
 D. Kosenkov,  L. Koulias,  T. Kowalczyk,  C. M. Krauter,  A. Kunitsa,  
 Ka Un Lao,  A. Laurent,  K. V. Lawler,  Joonho Lee,  D. Lefrancois,  
 S. Lehtola,  D. S. Levine,  Yi-Pei Li,  You-Sheng Lin,  Fenglai Liu,  
 Kuan-Yu Liu,  E. Livshits,  M. Loipersberger,  A. Luenser,  P. Manohar,  
 E. Mansoor,  S. F. Manzer,  Shan-Ping Mao,  Yuezhi Mao,  N. Mardirossian,  
 A. V. Marenich,  T. Markovich,  L. A. Martinez-Martinez,  S. A. Maurer,  
 N. J. Mayhall,  S. C. McKenzie,  J.-M. Mewes,  P. Morgante,  A. F. Morrison,  
 J. W. Mullinax,  K. Nanda,  T. S. Nguyen-Beck,  R. Olivares-Amaya,  
 K. J. Oosterbaan,  J. A. Parkhill,  S. K. Paul,  F. Pavosevic,  Zheng Pei,  
 T. M. Perrine,  F. Plasser,  P. Pokhilko,  S. Prager,  A. Prociuk,  
 E. Ramos,  B. Rana,  D. R. Rehn,  F. Rob,  M. Scheurer,  M. Schneider,  
 N. Sergueev,  S. M. Sharada,  S. Sharma,  D. W. Small,  T. Stauch,  
 C. J. Stein,  T. Stein,  Yu-Chuan Su,  S. P. Veccham,  Zhen Tao,  
 A. J. W. Thom,  A. Tkatchenko,  T. Tsuchimochi,  N. M. Tubman,  L. Vogt,  
 M. L. Vidal,  O. Vydrov,  M. A. Watson,  J. Wenzel,  M. de Wergifosse,  
 T. A. Wesolowski,  A. White,  J. Witte,  A. Yamada,  Jun Yang,  K. Yao,  
 S. Yeganeh,  S. R. Yost,  Zhi-Qiang You,  A. Zech,  Igor Ying Zhang,  
 Xing Zhang,  Yan Zhao,  Ying Zhu,  B. R. Brooks,  G. K. L. Chan,  
 C. J. Cramer,  M. S. Gordon,  W. J. Hehre,  A. Klamt,  M. W. Schmidt,  
 C. D. Sherrill,  D. G. Truhlar,  A. Aspuru-Guzik,  R. Baer,  A. T. Bell,  
 N. A. Besley,  Jeng-Da Chai,  A. E. DePrince, III,  R. A. DiStasio Jr.,  
 A. Dreuw,  B. D. Dunietz,  T. R. Furlani,  Chao-Ping Hsu,  Yousung Jung,  
 Jing Kong,  D. S. Lambrecht,  WanZhen Liang,  C. Ochsenfeld,  
 V. A. Rassolov,  L. V. Slipchenko,  J. E. Subotnik,  T. Van Voorhis,  
 J. M. Herbert,  A. I. Krylov,  P. M. W. Gill,  M. Head-Gordon

 Contributors to earlier versions of Q-Chem not listed above: 
 R. D. Adamson,  B. Austin,  J. Baker,  G. J. O. Beran,  K. Brandhorst,  
 S. T. Brown,  E. F. C. Byrd,  A. K. Chakraborty,  C.-L. Cheng,  
 Siu Hung Chien,  D. M. Chipman,  D. L. Crittenden,  H. Dachsel,  
 R. J. Doerksen,  A. D. Dutoi,  L. Fusti-Molnar,  W. A. Goddard III,  
 A. Golubeva-Zadorozhnaya,  S. R. Gwaltney,  G. Hawkins,  A. Heyden,  
 S. Hirata,  G. Kedziora,  F. J. Keil,  C. Kelley,  Jihan Kim,  R. A. King,  
 R. Z. Khaliullin,  P. P. Korambath,  W. Kurlancheek,  A. M. Lee,  M. S. Lee,  
 S. V. Levchenko,  Ching Yeh Lin,  D. Liotard,  R. C. Lochan,  I. Lotan,  
 P. E. Maslen,  N. Nair,  D. P. O'Neill,  D. Neuhauser,  E. Neuscamman,  
 C. M. Oana,  R. Olson,  B. Peters,  R. Peverati,  P. A. Pieniazek,  
 Y. M. Rhee,  J. Ritchie,  M. A. Rohrdanz,  E. Rosta,  N. J. Russ,  
 H. F. Schaefer III,  N. E. Schultz,  N. Shenvi,  A. C. Simmonett,  A. Sodt,  
 D. Stuck,  K. S. Thanthiriwatte,  V. Vanovschi,  Tao Wang,  A. Warshel,  
 C. F. Williams,  Q. Wu,  X. Xu,  W. Zhang

 Please cite Q-Chem as follows:
 Y. Shao et al., Mol. Phys. 113, 184-215 (2015)
 DOI: 10.1080/00268976.2014.952696

 Q-Chem 5.3.0 for Intel X86 EM64T Linux

 Parts of Q-Chem use Armadillo 9.800.1 (Horizon Scraper).
 http://arma.sourceforge.net/

 Q-Chem begins on Mon Jul 13 15:39:20 2020  

Host: centos77-c5
0

     Scratch files written to /tmp/29025.centos77-h1/qchem118639//
Processing $rem in /opt/qchem-5.3.0-intel2020u1//config/preferences:
Processing $rem in /home/shihchengli/.qchemrc:

Checking the input file for inconsistencies... 	...done.

--------------------------------------------------------------
User input:
--------------------------------------------------------------
$rem
   JOBTYPE  sp
   EXCHANGE   omegaB97X-D
   BASIS   6-311+G(2df,2pd)
   UNRESTRICTED   True
   max_scf_cycles   250
   geom_opt_max_cycles   1500
   basis2 6-31G*
   scf_algorithm rca_diis
   SYM_IGNORE  TRUE
   print_input   true
   geom_opt_dmax   80
   pop_mulliken false
   XC_GRID 000075000302
$end

$molecule
0 3
N       0.7053083946     1.1438094097     2.5255475423
O       0.4161190810     2.1012119557     1.9322580060
O       1.6608077399     1.0705845286     3.2271438618
N       0.0500120698     -1.1368186785     3.1210402844
O       -0.4261097629     -1.2532014209     4.1708376348
O       -0.4611463923     0.1694033152     2.1234725606
$end
--------------------------------------------------------------
 ----------------------------------------------------------------
             Standard Nuclear Orientation (Angstroms)
    I     Atom           X                Y                Z
 ----------------------------------------------------------------
    1      N       0.7053083946     1.1438094097     2.5255475423
    2      O       0.4161190810     2.1012119557     1.9322580060
    3      O       1.6608077399     1.0705845286     3.2271438618
    4      N       0.0500120698    -1.1368186785     3.1210402844
    5      O      -0.4261097629    -1.2532014209     4.1708376348
    6      O      -0.4611463923     0.1694033152     2.1234725606
 ----------------------------------------------------------------
 Nuclear Repulsion Energy =         229.24132568 hartrees
 There are       24 alpha and       22 beta electrons
 Requested basis set is 6-311+G(2df,2pd)
 There are 48 shells and 204 basis functions

 Total QAlloc Memory Limit   2000 MB
 Mega-Array Size       188 MB
 MEM_STATIC part       192 MB

                       Distance Matrix (Angstroms)
             N (  1)   O (  2)   O (  3)   N (  4)   O (  5)
   O (  2)  1.162860
   O (  3)  1.187678  2.070790
   N (  4)  2.446485  3.468729  2.734694
   O (  5)  3.119735  4.119791  3.262785  1.158582
   O (  6)  1.572179  2.130268  2.555955  1.721232  2.493338
 
 A cutoff of  1.0D-09 yielded   1029 shell pairs
 There are     19249 function pairs (     25253 Cartesian)
 Smallest overlap matrix eigenvalue = 6.33E-04

 Scale SEOQF with 1.000000e-01/1.000000e-01/1.000000e-01

 Standard Electronic Orientation quadrupole field applied
 Nucleus-field energy     =    -0.0000000365 hartrees
 Requested basis set is 6-31G(d)
 There are 24 shells and 84 basis functions
 A cutoff of  1.0D-09 yielded    267 shell pairs
 There are      3533 function pairs (      4061 Cartesian)
 Smallest overlap matrix eigenvalue = 5.23E-03
 Guess from superposition of atomic densities
 Warning:  Energy on first SCF cycle will be non-variational
 SAD guess density has 46.000000 electrons
 Long-range K will be added via erf
 Coulomb attenuation parameter = 0.2 bohr**(-1)
 An unrestricted hybrid HF-DFT SCF calculation will be
 performed using Relaxed Constraint Minimization + Pulay DIIS
 Exchange:     0.2220 Hartree-Fock + 1.0000 wB97X-D + LR-HF
 Correlation:  1.0000 wB97X-D
 Using Euler-Maclaurin-Lebedev (75,302) quadrature formula
 Dispersion:   Grimme D
 SCF converges when DIIS error is below 1.0E-04
 using 6 threads for integral computing
 -------------------------------------------------------
 OpenMP Integral computing Module                
 Release: version 1.0, May 2013, Q-Chem Inc. Pittsburgh 
 -------------------------------------------------------
 using 6 threads for integral computing
 -------------------------------------------------------
 OpenMP Integral computing Module                
 Release: version 1.0, May 2013, Q-Chem Inc. Pittsburgh 
 -------------------------------------------------------
 ---------------------------------------
  Cycle       Energy         DIIS Error
 ---------------------------------------
    1    -410.8961966125      8.74E-02
    2    -409.6344421212      1.91E-02
    3    -409.7365193668      4.06E-03
    4    -409.8795979668      4.47E-03
    5    -409.8853189374      7.64E-04 Done RCA. Switching to DIIS
    6    -409.8935388851      7.57E-04
    7    -409.8942039353      1.89E-04
    8    -409.8943591632      1.05E-04
    9    -409.8944600769      4.60E-05 Convergence criterion met
 ---------------------------------------
 <S^2> = 2.0183
 SCF time:  CPU 15.23 s  wall 2.55 s
 SCF   energy in the small basis set = -409.89446008
 Total energy in the small basis set = -409.89446008
 ----------------------------------------------------
  Cycle       Energy    
 ----------------------------------------------------
    1     -41.7197010560     -4.17E+01
 Long-range K will be added via erf
 Coulomb attenuation parameter = 0.2 bohr**(-1)
 An unrestricted hybrid HF-DFT SCF calculation will be
 performed using Relaxed Constraint Minimization + Pulay DIIS
 Exchange:     0.2220 Hartree-Fock + 1.0000 wB97X-D + LR-HF
 Correlation:  1.0000 wB97X-D
 Using Euler-Maclaurin-Lebedev (75,302) quadrature formula
 Dispersion:   Grimme D
 SCF converges when DIIS error is below 1.0E-05
 Basis2 calculation detected. Using small basis as guess for larger.
 SCFMinFind is unable to tell whether the solution found is close.
 Resetting ReadMinima to 0 and attempting to follow guess.
 SCFMinFind following SCF Guess.
 using 6 threads for integral computing
 -------------------------------------------------------
 OpenMP Integral computing Module                
 Release: version 1.0, May 2013, Q-Chem Inc. Pittsburgh 
 -------------------------------------------------------
 using 6 threads for integral computing
 -------------------------------------------------------
 OpenMP Integral computing Module                
 Release: version 1.0, May 2013, Q-Chem Inc. Pittsburgh 
 -------------------------------------------------------
 ---------------------------------------
  Cycle       Energy         DIIS Error
 ---------------------------------------
    1    -409.9769288963      8.08E-03
    2    -409.9785032655      4.61E-03
    3    -410.0043663361      1.30E-03
    4    -410.0412715967      1.23E-03
    5    -410.0444055257      1.59E-04 Done RCA. Switching to DIIS
    6    -410.0493735521      1.70E-04
    7    -410.0497145314      6.20E-05
    8    -410.0498330222      2.73E-05
    9    -410.0498840846      1.36E-05
   10    -410.0498981672      7.31E-06 Convergence criterion met
 ---------------------------------------
 <S^2> = 2.0203
 SCF time:  CPU 63.03 s  wall 10.53 s
 SCF   energy in the final basis set = -410.04989817
 Total energy in the final basis set = -410.04989817
 
 --------------------------------------------------------------
 
                    Orbital Energies (a.u.)
 --------------------------------------------------------------
 
 Alpha MOs
 -- Occupied --
-19.4091 -19.3971 -19.3597 -19.3474 -14.7643 -14.6075  -1.4468  -1.3704
 -1.2570  -1.1702  -0.8344  -0.7893  -0.7157  -0.7122  -0.6829  -0.6553
 -0.6418  -0.6264  -0.4933  -0.4927  -0.4679  -0.4640  -0.4361  -0.3294
 -- Virtual --
 -0.0255  -0.0238   0.0033   0.1007   0.1204   0.1365   0.1388   0.1751
  0.1836   0.1874   0.2267   0.2424   0.2523   0.2702   0.2785   0.2895
  0.3044   0.3216   0.3366   0.3492   0.3552   0.3573   0.3756   0.3940
  0.4037   0.4328   0.4488   0.4607   0.5042   0.5115   0.7278   0.7442
  0.8072   0.8376   0.8608   0.9153   0.9407   0.9660   0.9840   1.0196
  1.0298   1.0506   1.0534   1.0719   1.0769   1.0846   1.1116   1.1166
  1.1371   1.1514   1.1762   1.1790   1.2093   1.2207   1.2396   1.2754
  1.4231   1.4299   1.5150   1.5206   1.5545   1.5836   1.6002   1.6234
  1.6392   1.6686   1.6911   1.7282   1.8329   1.8721   1.9034   1.9623
  2.0296   2.1339   2.1688   2.2755   2.3164   2.3284   2.3681   2.4511
  2.5085   2.5786   2.6006   2.7132   3.5086   3.5404   3.5616   3.5735
  3.6556   3.6733   3.7140   3.7293   3.7684   3.7995   3.8146   3.8480
  3.9290   3.9987   4.0034   4.0185   4.1097   4.4025   4.4788   4.4978
  4.5152   4.5945   4.6304   4.6472   4.6875   4.7035   4.7131   4.7587
  4.8694   4.8938   4.9844   4.9961   5.0168   5.0234   5.0354   5.0403
  5.0438   5.0718   5.1013   5.1161   5.1312   5.1391   5.1544   5.1692
  5.1871   5.2321   5.2418   5.2863   5.3140   5.4050   5.4330   5.4571
  5.5071   5.5291   5.6048   5.6385   5.7534   5.7867   5.9282   6.0410
  6.0754   6.4323   6.6213   6.6978   6.7062   6.7358   6.7387   6.7766
  6.7777   6.8102   6.8150   6.8381   6.9376   6.9898   7.0108   7.1073
  7.1588   7.1834   7.2033   7.2222   7.2288   7.3554   7.4924   7.5491
  7.5672   7.6656   7.7194   7.8264   7.8666   8.1399  35.9605  36.1828
 49.9713  50.1826  50.2281  50.2697
 
 Beta MOs
 -- Occupied --
-19.3924 -19.3808 -19.3605 -19.3454 -14.7641 -14.5909  -1.4443  -1.3356
 -1.2548  -1.1245  -0.7951  -0.7563  -0.7109  -0.7027  -0.6727  -0.6071
 -0.5813  -0.5628  -0.4755  -0.4725  -0.4578  -0.4412
 -- Virtual --
 -0.1413  -0.0241  -0.0198   0.0172   0.0586   0.1041   0.1237   0.1390
  0.1437   0.1762   0.1864   0.1929   0.2281   0.2462   0.2542   0.2715
  0.2814   0.2918   0.3106   0.3243   0.3380   0.3511   0.3569   0.3584
  0.3792   0.4008   0.4105   0.4350   0.4520   0.4674   0.5126   0.5242
  0.7358   0.7558   0.8226   0.8528   0.8755   0.9225   0.9432   0.9703
  0.9907   1.0267   1.0410   1.0633   1.0664   1.0807   1.0887   1.0945
  1.1198   1.1320   1.1433   1.1562   1.1921   1.1977   1.2253   1.2330
  1.2510   1.2911   1.4407   1.4435   1.5195   1.5281   1.5632   1.5949
  1.6049   1.6409   1.6594   1.6878   1.7136   1.7384   1.8389   1.8802
  1.9089   1.9802   2.0471   2.1538   2.1724   2.2945   2.3217   2.3373
  2.3854   2.4649   2.5211   2.5820   2.6053   2.7175   3.5189   3.5719
  3.5852   3.5962   3.6644   3.6878   3.7292   3.7376   3.7925   3.8194
  3.8586   3.8748   3.9412   4.0018   4.0278   4.0418   4.1213   4.4046
  4.4804   4.5022   4.5228   4.6017   4.6578   4.6757   4.7021   4.7344
  4.7411   4.8028   4.9036   4.9455   5.0017   5.0148   5.0360   5.0430
  5.0472   5.0565   5.0671   5.0835   5.1168   5.1359   5.1437   5.1614
  5.1781   5.1932   5.2109   5.2593   5.2722   5.2964   5.3393   5.4138
  5.4444   5.4713   5.5314   5.5560   5.6180   5.6658   5.7566   5.7931
  5.9741   6.0524   6.0944   6.4412   6.6249   6.7297   6.7503   6.7772
  6.7811   6.7945   6.7991   6.8139   6.8199   6.8475   6.9823   7.0092
  7.0276   7.1161   7.1919   7.1979   7.2213   7.2298   7.2587   7.3931
  7.5121   7.5690   7.5735   7.6745   7.7435   7.8416   7.8843   8.1410
 35.9806  36.1831  49.9901  50.1976  50.2277  50.2715
 --------------------------------------------------------------
 
 -----------------------------------------------------------------
                    Cartesian Multipole Moments
 -----------------------------------------------------------------
    Charge (ESU x 10^10)
                 0.0000
    Dipole Moment (Debye)
         X      -0.0739      Y      -0.6097      Z       0.1378
       Tot       0.6294
    Quadrupole Moments (Debye-Ang)
        XX     -32.5928     XY      -0.7644     YY     -33.1510
        XZ      -1.2438     YZ      -0.6601     ZZ     -31.9019
    Octopole Moments (Debye-Ang^2)
       XXX     -33.0194    XXY     -12.3216    XYY     -10.9527
       YYY     -39.7335    XXZ     -94.6660    XYZ      -3.4729
       YYZ     -90.8417    XZZ     -15.7603    YZZ      -9.8765
       ZZZ    -275.8289
    Hexadecapole Moments (Debye-Ang^3)
      XXXX    -147.5452   XXXY     -61.8013   XXYY     -80.8260
      XYYY     -65.4508   YYYY    -342.4814   XXXZ     -93.6901
      XXYZ     -15.6925   XYYZ     -29.0494   YYYZ     -44.7132
      XXZZ    -319.6725   XYZZ     -34.0181   YYZZ    -328.4362
      XZZZ    -103.9057   YZZZ     -18.9283   ZZZZ   -1710.6954
 -----------------------------------------------------------------
Archival summary:
1\1\centos77-c5\SP\ProcedureUnspecified\BasisUnspecified\42(3)\shihchen\MonJul1315:39:352020MonJul1315:39:352020\0\\#,ProcedureUnspecified,BasisUnspecified,\\0,3\N\O,1,1.16286\O,1,1.18768,2,123.52\O,1,1.57218,2,101.261,3,179.391,0\N,4,1.72123,1,95.8422,2,-177.185,0\O,5,1.15858,4,118.642,1,95.6949,0\\\@

 Total job time:  15.37s(wall), 82.15s(cpu) 
 Mon Jul 13 15:39:35 2020

        *************************************************************
        *                                                           *
        *  Thank you very much for using Q-Chem.  Have a nice day.  *
        *                                                           *
        *************************************************************


