                  Welcome to Q-Chem
     A Quantum Leap Into The Future Of Chemistry


 Q-Chem 5.3 (devel), Q-Chem, Inc., Pleasanton, CA (2020)

 Yihan Shao,  Zhengting Gan,  E. Epifanovsky,  A. T. B. Gilbert,  M. Wormit,  
 J. Kussmann,  A. W. Lange,  A. Behn,  Jia Deng,  Xintian Feng,  D. Ghosh,  
 M. Goldey,  P. R. Horn,  L. D. Jacobson,  I. Kaliman,  T. Kus,  A. Landau,  
 Jie Liu,  E. I. Proynov,  R. M. Richard,  R. P. Steele,  E. J. Sundstrom,  
 H. L. Woodcock III,  P. M. Zimmerman,  D. Zuev,  B. Alam,  B. Albrecht,  
 E. Alguire,  S. A. Baeppler,  D. Barton,  Z. Benda,  Y. A. Bernard,  
 E. J. Berquist,  K. B. Bravaya,  H. Burton,  K. Carter-Fenk,  D. Casanova,  
 Chun-Min Chang,  Yunqing Chen,  A. Chien,  K. D. Closser,  M. P. Coons,  
 S. Coriani,  S. Dasgupta,  A. L. Dempwolff,  M. Diedenhofen,  Hainam Do,  
 R. G. Edgar,  Po-Tung Fang,  S. Faraji,  S. Fatehi,  Qingguo Feng,  
 J. Fosso-Tande,  J. Gayvert,  Qinghui Ge,  A. Ghysels,  G. Gidofalvi,  
 J. Gomes,  J. Gonthier,  A. Gunina,  D. Hait,  M. W. D. Hanson-Heine,  
 P. H. P. Harbach,  A. W. Hauser,  M. F. Herbst,  J. E. Herr,  
 E. G. Hohenstein,  Z. C. Holden,  Kerwin Hui,  B. C. Huynh,  T.-C. Jagau,  
 Hyunjun Ji,  B. Kaduk,  K. Khistyaev,  Jaehoon Kim,  P. Klunzinger,  K. Koh,  
 D. Kosenkov,  L. Koulias,  T. Kowalczyk,  C. M. Krauter,  A. Kunitsa,  
 Ka Un Lao,  A. Laurent,  K. V. Lawler,  Joonho Lee,  D. Lefrancois,  
 S. Lehtola,  D. S. Levine,  Yi-Pei Li,  You-Sheng Lin,  Fenglai Liu,  
 Kuan-Yu Liu,  E. Livshits,  M. Loipersberger,  A. Luenser,  P. Manohar,  
 E. Mansoor,  S. F. Manzer,  Shan-Ping Mao,  Yuezhi Mao,  N. Mardirossian,  
 A. V. Marenich,  T. Markovich,  L. A. Martinez-Martinez,  S. A. Maurer,  
 N. J. Mayhall,  S. C. McKenzie,  J.-M. Mewes,  P. Morgante,  A. F. Morrison,  
 J. W. Mullinax,  K. Nanda,  T. S. Nguyen-Beck,  R. Olivares-Amaya,  
 K. J. Oosterbaan,  J. A. Parkhill,  S. K. Paul,  F. Pavosevic,  Zheng Pei,  
 T. M. Perrine,  F. Plasser,  P. Pokhilko,  S. Prager,  A. Prociuk,  
 E. Ramos,  B. Rana,  D. R. Rehn,  F. Rob,  M. Scheurer,  M. Schneider,  
 N. Sergueev,  S. M. Sharada,  S. Sharma,  D. W. Small,  T. Stauch,  
 C. J. Stein,  T. Stein,  Yu-Chuan Su,  S. P. Veccham,  Zhen Tao,  
 A. J. W. Thom,  A. Tkatchenko,  T. Tsuchimochi,  N. M. Tubman,  L. Vogt,  
 M. L. Vidal,  O. Vydrov,  M. A. Watson,  J. Wenzel,  M. de Wergifosse,  
 T. A. Wesolowski,  A. White,  J. Witte,  A. Yamada,  Jun Yang,  K. Yao,  
 S. Yeganeh,  S. R. Yost,  Zhi-Qiang You,  A. Zech,  Igor Ying Zhang,  
 Xing Zhang,  Yan Zhao,  Ying Zhu,  B. R. Brooks,  G. K. L. Chan,  
 C. J. Cramer,  M. S. Gordon,  W. J. Hehre,  A. Klamt,  M. W. Schmidt,  
 C. D. Sherrill,  D. G. Truhlar,  A. Aspuru-Guzik,  R. Baer,  A. T. Bell,  
 N. A. Besley,  Jeng-Da Chai,  A. E. DePrince, III,  R. A. DiStasio Jr.,  
 A. Dreuw,  B. D. Dunietz,  T. R. Furlani,  Chao-Ping Hsu,  Yousung Jung,  
 Jing Kong,  D. S. Lambrecht,  WanZhen Liang,  C. Ochsenfeld,  
 V. A. Rassolov,  L. V. Slipchenko,  J. E. Subotnik,  T. Van Voorhis,  
 J. M. Herbert,  A. I. Krylov,  P. M. W. Gill,  M. Head-Gordon

 Contributors to earlier versions of Q-Chem not listed above: 
 R. D. Adamson,  B. Austin,  J. Baker,  G. J. O. Beran,  K. Brandhorst,  
 S. T. Brown,  E. F. C. Byrd,  A. K. Chakraborty,  C.-L. Cheng,  
 Siu Hung Chien,  D. M. Chipman,  D. L. Crittenden,  H. Dachsel,  
 R. J. Doerksen,  A. D. Dutoi,  L. Fusti-Molnar,  W. A. Goddard III,  
 A. Golubeva-Zadorozhnaya,  S. R. Gwaltney,  G. Hawkins,  A. Heyden,  
 S. Hirata,  G. Kedziora,  F. J. Keil,  C. Kelley,  Jihan Kim,  R. A. King,  
 R. Z. Khaliullin,  P. P. Korambath,  W. Kurlancheek,  A. M. Lee,  M. S. Lee,  
 S. V. Levchenko,  Ching Yeh Lin,  D. Liotard,  R. C. Lochan,  I. Lotan,  
 P. E. Maslen,  N. Nair,  D. P. O'Neill,  D. Neuhauser,  E. Neuscamman,  
 C. M. Oana,  R. Olson,  B. Peters,  R. Peverati,  P. A. Pieniazek,  
 Y. M. Rhee,  J. Ritchie,  M. A. Rohrdanz,  E. Rosta,  N. J. Russ,  
 H. F. Schaefer III,  N. E. Schultz,  N. Shenvi,  A. C. Simmonett,  A. Sodt,  
 D. Stuck,  K. S. Thanthiriwatte,  V. Vanovschi,  Tao Wang,  A. Warshel,  
 C. F. Williams,  Q. Wu,  X. Xu,  W. Zhang

 Please cite Q-Chem as follows:
 Y. Shao et al., Mol. Phys. 113, 184-215 (2015)
 DOI: 10.1080/00268976.2014.952696

 Q-Chem 5.3.0 for Intel X86 EM64T Linux

 Parts of Q-Chem use Armadillo 9.800.1 (Horizon Scraper).
 http://arma.sourceforge.net/

 Q-Chem begins on Mon Jul 13 15:25:55 2020  

Host: centos77-c5
0

     Scratch files written to /tmp/29025.centos77-h1/qchem9529//
Processing $rem in /opt/qchem-5.3.0-intel2020u1//config/preferences:
Processing $rem in /home/shihchengli/.qchemrc:

Checking the input file for inconsistencies... 	...done.

--------------------------------------------------------------
User input:
--------------------------------------------------------------
$rem
   JOBTYPE  sp
   EXCHANGE   omegaB97X-D
   BASIS   6-311+G(2df,2pd)
   UNRESTRICTED   True
   max_scf_cycles   250
   geom_opt_max_cycles   1500
   basis2 6-31G*
   scf_algorithm rca_diis
   SYM_IGNORE  TRUE
   print_input   true
   geom_opt_dmax   80
   pop_mulliken false
   XC_GRID 000075000302
$end

$molecule
0 3
N       0.8069564628     1.2895350812     2.4849626566
O       0.2482485849     2.1096036661     1.8307978275
O       1.8374520058     1.2895201046     3.0590961859
N       -0.1305350755     -1.2701677480     3.1299451163
O       -0.6951084289     -1.4929032651     4.1418847536
O       -0.1220224189     0.1694012711     2.4536133501
$end
--------------------------------------------------------------
 ----------------------------------------------------------------
             Standard Nuclear Orientation (Angstroms)
    I     Atom           X                Y                Z
 ----------------------------------------------------------------
    1      N       0.8069564628     1.2895350812     2.4849626566
    2      O       0.2482485849     2.1096036661     1.8307978275
    3      O       1.8374520058     1.2895201046     3.0590961859
    4      N      -0.1305350755    -1.2701677480     3.1299451163
    5      O      -0.6951084289    -1.4929032651     4.1418847536
    6      O      -0.1220224189     0.1694012711     2.4536133501
 ----------------------------------------------------------------
 Nuclear Repulsion Energy =         225.75807036 hartrees
 There are       24 alpha and       22 beta electrons
 Requested basis set is 6-311+G(2df,2pd)
 There are 48 shells and 204 basis functions

 Total QAlloc Memory Limit   2000 MB
 Mega-Array Size       188 MB
 MEM_STATIC part       192 MB

                       Distance Matrix (Angstroms)
             N (  1)   O (  2)   O (  3)   N (  4)   O (  5)
   O (  2)  1.188528
   O (  3)  1.179640  2.169521
   N (  4)  2.801245  3.640620  3.229550
   O (  5)  3.569811  4.382819  3.915121  1.179990
   O (  6)  1.455570  2.071083  2.336839  1.590552  2.437610
 
 A cutoff of  1.0D-09 yielded    994 shell pairs
 There are     18450 function pairs (     24127 Cartesian)
 Smallest overlap matrix eigenvalue = 7.82E-04

 Scale SEOQF with 1.000000e-01/1.000000e-01/1.000000e-01

 Standard Electronic Orientation quadrupole field applied
 Nucleus-field energy     =    -0.0000000350 hartrees
 Requested basis set is 6-31G(d)
 There are 24 shells and 84 basis functions
 A cutoff of  1.0D-09 yielded    259 shell pairs
 There are      3403 function pairs (      3906 Cartesian)
 Smallest overlap matrix eigenvalue = 4.95E-03
 Guess from superposition of atomic densities
 Warning:  Energy on first SCF cycle will be non-variational
 SAD guess density has 46.000000 electrons
 Long-range K will be added via erf
 Coulomb attenuation parameter = 0.2 bohr**(-1)
 An unrestricted hybrid HF-DFT SCF calculation will be
 performed using Relaxed Constraint Minimization + Pulay DIIS
 Exchange:     0.2220 Hartree-Fock + 1.0000 wB97X-D + LR-HF
 Correlation:  1.0000 wB97X-D
 Using Euler-Maclaurin-Lebedev (75,302) quadrature formula
 Dispersion:   Grimme D
 SCF converges when DIIS error is below 1.0E-04
 using 6 threads for integral computing
 -------------------------------------------------------
 OpenMP Integral computing Module                
 Release: version 1.0, May 2013, Q-Chem Inc. Pittsburgh 
 -------------------------------------------------------
 using 6 threads for integral computing
 -------------------------------------------------------
 OpenMP Integral computing Module                
 Release: version 1.0, May 2013, Q-Chem Inc. Pittsburgh 
 -------------------------------------------------------
 ---------------------------------------
  Cycle       Energy         DIIS Error
 ---------------------------------------
    1    -411.0037640523      8.77E-02
    2    -409.6486331183      1.92E-02
    3    -409.7507898099      4.38E-03
    4    -409.8963929374      4.63E-03
    5    -409.9025290680      6.73E-04 Done RCA. Switching to DIIS
    6    -409.9107733679      5.90E-04
    7    -409.9112079435      1.27E-04
    8    -409.9112841605      5.97E-05 Convergence criterion met
 ---------------------------------------
 <S^2> = 2.0164
 SCF time:  CPU 13.92 s  wall 2.34 s
 SCF   energy in the small basis set = -409.91128416
 Total energy in the small basis set = -409.91128416
 ----------------------------------------------------
  Cycle       Energy    
 ----------------------------------------------------
    1     -41.7395312542     -4.17E+01
 Long-range K will be added via erf
 Coulomb attenuation parameter = 0.2 bohr**(-1)
 An unrestricted hybrid HF-DFT SCF calculation will be
 performed using Relaxed Constraint Minimization + Pulay DIIS
 Exchange:     0.2220 Hartree-Fock + 1.0000 wB97X-D + LR-HF
 Correlation:  1.0000 wB97X-D
 Using Euler-Maclaurin-Lebedev (75,302) quadrature formula
 Dispersion:   Grimme D
 SCF converges when DIIS error is below 1.0E-05
 Basis2 calculation detected. Using small basis as guess for larger.
 SCFMinFind is unable to tell whether the solution found is close.
 Resetting ReadMinima to 0 and attempting to follow guess.
 SCFMinFind following SCF Guess.
 using 6 threads for integral computing
 -------------------------------------------------------
 OpenMP Integral computing Module                
 Release: version 1.0, May 2013, Q-Chem Inc. Pittsburgh 
 -------------------------------------------------------
 using 6 threads for integral computing
 -------------------------------------------------------
 OpenMP Integral computing Module                
 Release: version 1.0, May 2013, Q-Chem Inc. Pittsburgh 
 -------------------------------------------------------
 ---------------------------------------
  Cycle       Energy         DIIS Error
 ---------------------------------------
    1    -410.0017429045      8.02E-03
    2    -410.0090439515      4.20E-03
    3    -410.0306669752      1.18E-03
    4    -410.0610177620      1.16E-03
    5    -410.0633836802      1.34E-04 Done RCA. Switching to DIIS
    6    -410.0668653108      1.33E-04
    7    -410.0669817097      5.26E-05
    8    -410.0670393991      1.86E-05
    9    -410.0670606800      1.12E-05
   10    -410.0670695570      6.08E-06 Convergence criterion met
 ---------------------------------------
 <S^2> = 2.0187
 SCF time:  CPU 61.93 s  wall 10.35 s
 SCF   energy in the final basis set = -410.06706956
 Total energy in the final basis set = -410.06706956
 
 --------------------------------------------------------------
 
                    Orbital Energies (a.u.)
 --------------------------------------------------------------
 
 Alpha MOs
 -- Occupied --
-19.3984 -19.3908 -19.3612 -19.3601 -14.7766 -14.6187  -1.4468  -1.3553
 -1.2717  -1.1913  -0.8891  -0.7717  -0.7247  -0.7195  -0.6846  -0.6471
 -0.6262  -0.6102  -0.5149  -0.4906  -0.4718  -0.4639  -0.4288  -0.3358
 -- Virtual --
 -0.0299  -0.0015   0.0808   0.1148   0.1246   0.1324   0.1372   0.1655
  0.1773   0.1866   0.2199   0.2375   0.2445   0.2577   0.2721   0.2868
  0.2954   0.3241   0.3336   0.3429   0.3489   0.3609   0.3782   0.3921
  0.3967   0.4283   0.4516   0.4699   0.5020   0.5305   0.7558   0.7766
  0.8061   0.8261   0.8661   0.8792   0.9341   0.9361   0.9908   0.9963
  1.0335   1.0355   1.0586   1.0661   1.0797   1.0850   1.1129   1.1232
  1.1327   1.1363   1.1559   1.1722   1.2495   1.2658   1.2819   1.3839
  1.4210   1.5127   1.5275   1.5353   1.5527   1.5710   1.5738   1.6129
  1.6507   1.6625   1.7192   1.7752   1.8171   1.8858   1.8970   1.9659
  1.9775   2.1051   2.1474   2.2300   2.2803   2.4016   2.4502   2.4843
  2.5171   2.5725   2.6682   2.7725   3.4775   3.5358   3.5964   3.6085
  3.6406   3.6520   3.6557   3.7154   3.7311   3.7748   3.7970   3.8555
  3.9550   3.9758   4.0274   4.0739   4.2117   4.4234   4.4373   4.4790
  4.5518   4.5773   4.6559   4.6806   4.6937   4.7103   4.7423   4.7609
  4.8978   4.9376   4.9985   5.0138   5.0245   5.0265   5.0321   5.0389
  5.0577   5.0656   5.0800   5.0923   5.1233   5.1284   5.1331   5.1830
  5.2053   5.2720   5.3038   5.3655   5.4196   5.4279   5.4587   5.4873
  5.5273   5.5407   5.6079   5.6534   5.8296   5.8521   5.9223   6.1640
  6.4916   6.5402   6.6069   6.6277   6.6925   6.7293   6.7472   6.7512
  6.7727   6.8079   6.8504   6.8925   6.9325   6.9335   7.1134   7.1191
  7.1562   7.1655   7.2156   7.2218   7.2681   7.3662   7.4133   7.5106
  7.6793   7.6929   7.7781   7.8507   8.0024   8.2810  35.8910  36.1217
 49.9596  50.1543  50.2271  50.2521
 
 Beta MOs
 -- Occupied --
-19.3867 -19.3728 -19.3615 -19.3567 -14.7760 -14.6007  -1.4423  -1.3165
 -1.2676  -1.1594  -0.8491  -0.7458  -0.7173  -0.6991  -0.6780  -0.5832
 -0.5757  -0.5493  -0.4795  -0.4738  -0.4625  -0.4505
 -- Virtual --
 -0.1439  -0.0265  -0.0142   0.0447   0.0879   0.1216   0.1340   0.1405
  0.1530   0.1683   0.1814   0.1911   0.2207   0.2400   0.2481   0.2600
  0.2743   0.2901   0.3036   0.3252   0.3349   0.3452   0.3509   0.3645
  0.3803   0.3941   0.4110   0.4366   0.4554   0.4795   0.5114   0.5374
  0.7634   0.7832   0.8187   0.8466   0.8748   0.8923   0.9393   0.9411
  1.0022   1.0112   1.0410   1.0461   1.0641   1.0727   1.0917   1.1117
  1.1183   1.1431   1.1475   1.1505   1.1597   1.1785   1.2623   1.2761
  1.2925   1.3940   1.4356   1.5223   1.5287   1.5537   1.5645   1.5804
  1.5850   1.6326   1.6687   1.6776   1.7264   1.7890   1.8230   1.8911
  1.9085   1.9777   1.9954   2.1199   2.1590   2.2467   2.2929   2.4113
  2.4605   2.5009   2.5208   2.5775   2.6778   2.7776   3.4992   3.5723
  3.6111   3.6290   3.6535   3.6579   3.6655   3.7251   3.7557   3.8147
  3.8501   3.8708   3.9840   3.9915   4.0321   4.0915   4.2226   4.4264
  4.4402   4.4813   4.5631   4.6096   4.6606   4.7171   4.7215   4.7503
  4.7617   4.7978   4.9387   4.9831   5.0120   5.0258   5.0366   5.0381
  5.0518   5.0706   5.0814   5.0850   5.0884   5.1090   5.1308   5.1417
  5.1714   5.2162   5.2204   5.2952   5.3226   5.3710   5.4387   5.4446
  5.4724   5.5013   5.5429   5.5609   5.6247   5.6732   5.8383   5.8633
  5.9386   6.1805   6.5087   6.5445   6.6412   6.6507   6.7263   6.7548
  6.7804   6.7952   6.8099   6.8172   6.8610   6.9182   6.9360   6.9553
  7.1249   7.1415   7.1634   7.2018   7.2288   7.2421   7.2830   7.3759
  7.4363   7.5195   7.7084   7.7197   7.7825   7.8546   8.0276   8.2846
 35.9129  36.1225  49.9717  50.1712  50.2304  50.2519
 --------------------------------------------------------------
 
 -----------------------------------------------------------------
                    Cartesian Multipole Moments
 -----------------------------------------------------------------
    Charge (ESU x 10^10)
                -0.0000
    Dipole Moment (Debye)
         X       0.1374      Y      -0.3713      Z       0.0719
       Tot       0.4024
    Quadrupole Moments (Debye-Ang)
        XX     -33.2363     XY      -0.5815     YY     -32.9170
        XZ      -0.6136     YZ       0.4444     ZZ     -31.9913
    Octopole Moments (Debye-Ang^2)
       XXX     -34.4301    XXY     -12.7500    XYY     -11.1416
       YYY     -38.7131    XXZ     -96.8039    XYZ      -3.2990
       YYZ     -91.4817    XZZ     -13.3067    YZZ      -4.8218
       ZZZ    -275.5614
    Hexadecapole Moments (Debye-Ang^3)
      XXXX    -176.6177   XXXY     -85.3501   XXYY     -97.3718
      XYYY     -83.7976   YYYY    -399.0641   XXXZ     -84.3280
      XXYZ     -13.0770   XYYZ     -25.7790   YYYZ     -28.8857
      XXZZ    -329.2143   XYZZ     -40.8791   YYZZ    -343.4774
      XZZZ     -80.1234   YZZZ      15.3707   ZZZZ   -1698.6096
 -----------------------------------------------------------------
Archival summary:
1\1\centos77-c5\SP\ProcedureUnspecified\BasisUnspecified\42(3)\shihchen\MonJul1315:26:092020MonJul1315:26:092020\0\\#,ProcedureUnspecified,BasisUnspecified,\\0,3\N\O,1,1.17964\O,1,1.18853,2,132.73\O,1,1.45557,2,124.611,3,-179.299,0\N,4,1.59055,1,133.69,2,2.2874,0\O,5,1.17999,4,122.552,1,95.6949,0\\\@

 Total job time:  14.90s(wall), 79.85s(cpu) 
 Mon Jul 13 15:26:09 2020

        *************************************************************
        *                                                           *
        *  Thank you very much for using Q-Chem.  Have a nice day.  *
        *                                                           *
        *************************************************************


