                  Welcome to Q-Chem
     A Quantum Leap Into The Future Of Chemistry


 Q-Chem 5.3 (devel), Q-Chem, Inc., Pleasanton, CA (2020)

 Yihan Shao,  Zhengting Gan,  E. Epifanovsky,  A. T. B. Gilbert,  M. Wormit,  
 J. Kussmann,  A. W. Lange,  A. Behn,  Jia Deng,  Xintian Feng,  D. Ghosh,  
 M. Goldey,  P. R. Horn,  L. D. Jacobson,  I. Kaliman,  T. Kus,  A. Landau,  
 Jie Liu,  E. I. Proynov,  R. M. Richard,  R. P. Steele,  E. J. Sundstrom,  
 H. L. Woodcock III,  P. M. Zimmerman,  D. Zuev,  B. Alam,  B. Albrecht,  
 E. Alguire,  S. A. Baeppler,  D. Barton,  Z. Benda,  Y. A. Bernard,  
 E. J. Berquist,  K. B. Bravaya,  H. Burton,  K. Carter-Fenk,  D. Casanova,  
 Chun-Min Chang,  Yunqing Chen,  A. Chien,  K. D. Closser,  M. P. Coons,  
 S. Coriani,  S. Dasgupta,  A. L. Dempwolff,  M. Diedenhofen,  Hainam Do,  
 R. G. Edgar,  Po-Tung Fang,  S. Faraji,  S. Fatehi,  Qingguo Feng,  
 J. Fosso-Tande,  J. Gayvert,  Qinghui Ge,  A. Ghysels,  G. Gidofalvi,  
 J. Gomes,  J. Gonthier,  A. Gunina,  D. Hait,  M. W. D. Hanson-Heine,  
 P. H. P. Harbach,  A. W. Hauser,  M. F. Herbst,  J. E. Herr,  
 E. G. Hohenstein,  Z. C. Holden,  Kerwin Hui,  B. C. Huynh,  T.-C. Jagau,  
 Hyunjun Ji,  B. Kaduk,  K. Khistyaev,  Jaehoon Kim,  P. Klunzinger,  K. Koh,  
 D. Kosenkov,  L. Koulias,  T. Kowalczyk,  C. M. Krauter,  A. Kunitsa,  
 Ka Un Lao,  A. Laurent,  K. V. Lawler,  Joonho Lee,  D. Lefrancois,  
 S. Lehtola,  D. S. Levine,  Yi-Pei Li,  You-Sheng Lin,  Fenglai Liu,  
 Kuan-Yu Liu,  E. Livshits,  M. Loipersberger,  A. Luenser,  P. Manohar,  
 E. Mansoor,  S. F. Manzer,  Shan-Ping Mao,  Yuezhi Mao,  N. Mardirossian,  
 A. V. Marenich,  T. Markovich,  L. A. Martinez-Martinez,  S. A. Maurer,  
 N. J. Mayhall,  S. C. McKenzie,  J.-M. Mewes,  P. Morgante,  A. F. Morrison,  
 J. W. Mullinax,  K. Nanda,  T. S. Nguyen-Beck,  R. Olivares-Amaya,  
 K. J. Oosterbaan,  J. A. Parkhill,  S. K. Paul,  F. Pavosevic,  Zheng Pei,  
 T. M. Perrine,  F. Plasser,  P. Pokhilko,  S. Prager,  A. Prociuk,  
 E. Ramos,  B. Rana,  D. R. Rehn,  F. Rob,  M. Scheurer,  M. Schneider,  
 N. Sergueev,  S. M. Sharada,  S. Sharma,  D. W. Small,  T. Stauch,  
 C. J. Stein,  T. Stein,  Yu-Chuan Su,  S. P. Veccham,  Zhen Tao,  
 A. J. W. Thom,  A. Tkatchenko,  T. Tsuchimochi,  N. M. Tubman,  L. Vogt,  
 M. L. Vidal,  O. Vydrov,  M. A. Watson,  J. Wenzel,  M. de Wergifosse,  
 T. A. Wesolowski,  A. White,  J. Witte,  A. Yamada,  Jun Yang,  K. Yao,  
 S. Yeganeh,  S. R. Yost,  Zhi-Qiang You,  A. Zech,  Igor Ying Zhang,  
 Xing Zhang,  Yan Zhao,  Ying Zhu,  B. R. Brooks,  G. K. L. Chan,  
 C. J. Cramer,  M. S. Gordon,  W. J. Hehre,  A. Klamt,  M. W. Schmidt,  
 C. D. Sherrill,  D. G. Truhlar,  A. Aspuru-Guzik,  R. Baer,  A. T. Bell,  
 N. A. Besley,  Jeng-Da Chai,  A. E. DePrince, III,  R. A. DiStasio Jr.,  
 A. Dreuw,  B. D. Dunietz,  T. R. Furlani,  Chao-Ping Hsu,  Yousung Jung,  
 Jing Kong,  D. S. Lambrecht,  WanZhen Liang,  C. Ochsenfeld,  
 V. A. Rassolov,  L. V. Slipchenko,  J. E. Subotnik,  T. Van Voorhis,  
 J. M. Herbert,  A. I. Krylov,  P. M. W. Gill,  M. Head-Gordon

 Contributors to earlier versions of Q-Chem not listed above: 
 R. D. Adamson,  B. Austin,  J. Baker,  G. J. O. Beran,  K. Brandhorst,  
 S. T. Brown,  E. F. C. Byrd,  A. K. Chakraborty,  C.-L. Cheng,  
 Siu Hung Chien,  D. M. Chipman,  D. L. Crittenden,  H. Dachsel,  
 R. J. Doerksen,  A. D. Dutoi,  L. Fusti-Molnar,  W. A. Goddard III,  
 A. Golubeva-Zadorozhnaya,  S. R. Gwaltney,  G. Hawkins,  A. Heyden,  
 S. Hirata,  G. Kedziora,  F. J. Keil,  C. Kelley,  Jihan Kim,  R. A. King,  
 R. Z. Khaliullin,  P. P. Korambath,  W. Kurlancheek,  A. M. Lee,  M. S. Lee,  
 S. V. Levchenko,  Ching Yeh Lin,  D. Liotard,  R. C. Lochan,  I. Lotan,  
 P. E. Maslen,  N. Nair,  D. P. O'Neill,  D. Neuhauser,  E. Neuscamman,  
 C. M. Oana,  R. Olson,  B. Peters,  R. Peverati,  P. A. Pieniazek,  
 Y. M. Rhee,  J. Ritchie,  M. A. Rohrdanz,  E. Rosta,  N. J. Russ,  
 H. F. Schaefer III,  N. E. Schultz,  N. Shenvi,  A. C. Simmonett,  A. Sodt,  
 D. Stuck,  K. S. Thanthiriwatte,  V. Vanovschi,  Tao Wang,  A. Warshel,  
 C. F. Williams,  Q. Wu,  X. Xu,  W. Zhang

 Please cite Q-Chem as follows:
 Y. Shao et al., Mol. Phys. 113, 184-215 (2015)
 DOI: 10.1080/00268976.2014.952696

 Q-Chem 5.3.0 for Intel X86 EM64T Linux

 Parts of Q-Chem use Armadillo 9.800.1 (Horizon Scraper).
 http://arma.sourceforge.net/

 Q-Chem begins on Mon Jul 13 15:44:16 2020  

Host: centos77-c5
0

     Scratch files written to /tmp/29025.centos77-h1/qchem76454//
Processing $rem in /opt/qchem-5.3.0-intel2020u1//config/preferences:
Processing $rem in /home/shihchengli/.qchemrc:

Checking the input file for inconsistencies... 	...done.

--------------------------------------------------------------
User input:
--------------------------------------------------------------
$rem
   JOBTYPE  sp
   EXCHANGE   omegaB97X-D
   BASIS   6-311+G(2df,2pd)
   UNRESTRICTED   True
   max_scf_cycles   250
   geom_opt_max_cycles   1500
   basis2 6-31G*
   scf_algorithm rca_diis
   SYM_IGNORE  TRUE
   print_input   true
   geom_opt_dmax   80
   pop_mulliken false
   XC_GRID 000075000302
$end

$molecule
0 3
N       0.7775623263     1.3106773378     2.4958703992
O       0.3080044873     2.1761497369     1.8198720842
O       1.6204128917     0.9076343408     3.2420610352
N       0.0441928137     -1.1707954733     3.1388546645
O       -0.4719595119     -1.3078783499     4.1805017107
O       -0.3332218770     0.1792015176     2.2231399961
$end
--------------------------------------------------------------
 ----------------------------------------------------------------
             Standard Nuclear Orientation (Angstroms)
    I     Atom           X                Y                Z
 ----------------------------------------------------------------
    1      N       0.7775623263     1.3106773378     2.4958703992
    2      O       0.3080044873     2.1761497369     1.8198720842
    3      O       1.6204128917     0.9076343408     3.2420610352
    4      N       0.0441928137    -1.1707954733     3.1388546645
    5      O      -0.4719595119    -1.3078783499     4.1805017107
    6      O      -0.3332218770     0.1792015176     2.2231399961
 ----------------------------------------------------------------
 Nuclear Repulsion Energy =         226.53011010 hartrees
 There are       24 alpha and       22 beta electrons
 Requested basis set is 6-311+G(2df,2pd)
 There are 48 shells and 204 basis functions

 Total QAlloc Memory Limit   2000 MB
 Mega-Array Size       188 MB
 MEM_STATIC part       192 MB

                       Distance Matrix (Angstroms)
             N (  1)   O (  2)   O (  3)   N (  4)   O (  5)
   O (  2)  1.194362
   O (  3)  1.195676  2.313908
   N (  4)  2.666265  3.607125  2.610554
   O (  5)  3.355014  4.280113  3.188603  1.170570
   O (  6)  1.608869  2.135790  2.320669  1.674356  2.462097
 
 A cutoff of  1.0D-09 yielded   1018 shell pairs
 There are     18979 function pairs (     24893 Cartesian)
 Smallest overlap matrix eigenvalue = 6.16E-04

 Scale SEOQF with 1.000000e-01/1.000000e-01/1.000000e-01

 Standard Electronic Orientation quadrupole field applied
 Nucleus-field energy     =    -0.0000000364 hartrees
 Requested basis set is 6-31G(d)
 There are 24 shells and 84 basis functions
 A cutoff of  1.0D-09 yielded    268 shell pairs
 There are      3537 function pairs (      4065 Cartesian)
 Smallest overlap matrix eigenvalue = 3.78E-03
 Guess from superposition of atomic densities
 Warning:  Energy on first SCF cycle will be non-variational
 SAD guess density has 46.000000 electrons
 Long-range K will be added via erf
 Coulomb attenuation parameter = 0.2 bohr**(-1)
 An unrestricted hybrid HF-DFT SCF calculation will be
 performed using Relaxed Constraint Minimization + Pulay DIIS
 Exchange:     0.2220 Hartree-Fock + 1.0000 wB97X-D + LR-HF
 Correlation:  1.0000 wB97X-D
 Using Euler-Maclaurin-Lebedev (75,302) quadrature formula
 Dispersion:   Grimme D
 SCF converges when DIIS error is below 1.0E-04
 using 6 threads for integral computing
 -------------------------------------------------------
 OpenMP Integral computing Module                
 Release: version 1.0, May 2013, Q-Chem Inc. Pittsburgh 
 -------------------------------------------------------
 using 6 threads for integral computing
 -------------------------------------------------------
 OpenMP Integral computing Module                
 Release: version 1.0, May 2013, Q-Chem Inc. Pittsburgh 
 -------------------------------------------------------
 ---------------------------------------
  Cycle       Energy         DIIS Error
 ---------------------------------------
    1    -410.7430648068      8.34E-02
    2    -409.6366386184      1.90E-02
    3    -409.7423928712      3.80E-03
    4    -409.8911159340      3.85E-03
    5    -409.8954051508      6.42E-04 Done RCA. Switching to DIIS
    6    -409.9018294777      5.34E-04
    7    -409.9023324277      1.38E-04
    8    -409.9024669331      1.09E-04
    9    -409.9025423326      4.85E-05 Convergence criterion met
 ---------------------------------------
 <S^2> = 2.0187
 SCF time:  CPU 15.26 s  wall 2.56 s
 SCF   energy in the small basis set = -409.90254233
 Total energy in the small basis set = -409.90254233
 ----------------------------------------------------
  Cycle       Energy    
 ----------------------------------------------------
    1     -41.6553731679     -4.17E+01
 Long-range K will be added via erf
 Coulomb attenuation parameter = 0.2 bohr**(-1)
 An unrestricted hybrid HF-DFT SCF calculation will be
 performed using Relaxed Constraint Minimization + Pulay DIIS
 Exchange:     0.2220 Hartree-Fock + 1.0000 wB97X-D + LR-HF
 Correlation:  1.0000 wB97X-D
 Using Euler-Maclaurin-Lebedev (75,302) quadrature formula
 Dispersion:   Grimme D
 SCF converges when DIIS error is below 1.0E-05
 Basis2 calculation detected. Using small basis as guess for larger.
 SCFMinFind is unable to tell whether the solution found is close.
 Resetting ReadMinima to 0 and attempting to follow guess.
 SCFMinFind following SCF Guess.
 using 6 threads for integral computing
 -------------------------------------------------------
 OpenMP Integral computing Module                
 Release: version 1.0, May 2013, Q-Chem Inc. Pittsburgh 
 -------------------------------------------------------
 using 6 threads for integral computing
 -------------------------------------------------------
 OpenMP Integral computing Module                
 Release: version 1.0, May 2013, Q-Chem Inc. Pittsburgh 
 -------------------------------------------------------
 ---------------------------------------
  Cycle       Energy         DIIS Error
 ---------------------------------------
    1    -409.9912946247      8.03E-03
    2    -409.9995561177      4.17E-03
    3    -410.0222768003      9.32E-04 Done RCA. Switching to DIIS
    4    -410.0528318577      1.03E-03
    5    -410.0563461912      2.36E-04
    6    -410.0566456624      4.98E-05
    7    -410.0567512261      2.47E-05
    8    -410.0567733440      2.32E-05
    9    -410.0567879932      7.39E-06 Convergence criterion met
 ---------------------------------------
 <S^2> = 2.0203
 SCF time:  CPU 53.18 s  wall 8.89 s
 SCF   energy in the final basis set = -410.05678799
 Total energy in the final basis set = -410.05678799
 
 --------------------------------------------------------------
 
                    Orbital Energies (a.u.)
 --------------------------------------------------------------
 
 Alpha MOs
 -- Occupied --
-19.3895 -19.3883 -19.3785 -19.3667 -14.7830 -14.5972  -1.4306  -1.3463
 -1.2923  -1.1338  -0.8318  -0.7839  -0.7220  -0.7132  -0.6944  -0.6439
 -0.6212  -0.6112  -0.5024  -0.4940  -0.4606  -0.4582  -0.4243  -0.3178
 -- Virtual --
 -0.0461   0.0152   0.0350   0.0837   0.1220   0.1354   0.1420   0.1670
  0.1755   0.1824   0.2058   0.2320   0.2439   0.2558   0.2703   0.2804
  0.2939   0.3029   0.3192   0.3420   0.3545   0.3640   0.3694   0.3884
  0.4047   0.4174   0.4544   0.4565   0.5069   0.5707   0.7458   0.7633
  0.8110   0.8241   0.8553   0.8801   0.8895   0.9548   0.9779   1.0059
  1.0285   1.0313   1.0552   1.0719   1.0873   1.0933   1.1153   1.1395
  1.1471   1.1581   1.1722   1.2124   1.2216   1.2350   1.2517   1.3052
  1.4162   1.4350   1.4605   1.4949   1.5216   1.5565   1.5981   1.6091
  1.6562   1.6849   1.7092   1.7692   1.8221   1.8733   1.8939   1.9656
  2.0006   2.0129   2.1663   2.2896   2.3115   2.4133   2.4620   2.4767
  2.5008   2.5399   2.6604   2.7090   3.4927   3.5434   3.5565   3.5805
  3.5892   3.6125   3.6530   3.6694   3.7134   3.7812   3.8165   3.8420
  3.8914   3.9349   3.9967   4.0465   4.0483   4.2432   4.4352   4.4546
  4.4634   4.6208   4.6665   4.6867   4.6996   4.7452   4.7851   4.7982
  4.8581   4.9388   4.9871   4.9988   5.0194   5.0222   5.0343   5.0366
  5.0605   5.0667   5.0893   5.1066   5.1145   5.1344   5.1589   5.1778
  5.2077   5.2556   5.2633   5.2861   5.3347   5.3859   5.4301   5.4544
  5.4920   5.5259   5.5544   5.5860   5.6549   5.6992   5.8794   6.0468
  6.1697   6.2613   6.6199   6.6524   6.6686   6.6854   6.7349   6.7431
  6.7585   6.7725   6.7891   6.8445   6.9460   7.0173   7.0432   7.1066
  7.1798   7.2103   7.2496   7.2656   7.3094   7.3373   7.3912   7.4850
  7.5233   7.6098   7.7072   7.7189   7.8839   8.6849  35.9338  36.0089
 50.0017  50.1733  50.1827  50.2883
 
 Beta MOs
 -- Occupied --
-19.3900 -19.3866 -19.3609 -19.3527 -14.7822 -14.5805  -1.4278  -1.3091
 -1.2906  -1.0918  -0.8028  -0.7501  -0.7119  -0.7008  -0.6923  -0.5898
 -0.5621  -0.5436  -0.4939  -0.4840  -0.4439  -0.4373
 -- Virtual --
 -0.1203  -0.0442  -0.0089   0.0538   0.0865   0.0908   0.1269   0.1390
  0.1461   0.1689   0.1784   0.1875   0.2081   0.2332   0.2474   0.2585
  0.2717   0.2843   0.2967   0.3080   0.3234   0.3434   0.3567   0.3661
  0.3713   0.3932   0.4116   0.4243   0.4570   0.4617   0.5255   0.5744
  0.7518   0.7760   0.8228   0.8341   0.8722   0.8908   0.8931   0.9661
  0.9832   1.0102   1.0350   1.0411   1.0667   1.0878   1.1021   1.1126
  1.1208   1.1500   1.1600   1.1632   1.1938   1.2197   1.2358   1.2446
  1.2656   1.3166   1.4349   1.4463   1.4636   1.4969   1.5302   1.5612
  1.6109   1.6322   1.6807   1.7024   1.7341   1.7809   1.8257   1.8782
  1.9028   1.9865   2.0025   2.0271   2.1902   2.3063   2.3248   2.4298
  2.4689   2.4806   2.5083   2.5534   2.6639   2.7130   3.5043   3.5561
  3.5809   3.5924   3.6079   3.6277   3.6552   3.6983   3.7230   3.8150
  3.8554   3.8852   3.9026   3.9542   4.0294   4.0475   4.0698   4.2454
  4.4375   4.4565   4.4718   4.6521   4.6754   4.7169   4.7468   4.7649
  4.8092   4.8417   4.8795   4.9833   4.9974   5.0097   5.0237   5.0271
  5.0599   5.0708   5.0767   5.0800   5.1031   5.1179   5.1387   5.1572
  5.1853   5.2061   5.2416   5.2629   5.2685   5.3180   5.3594   5.3963
  5.4467   5.4629   5.5109   5.5538   5.5694   5.5930   5.6865   5.7039
  5.8975   6.0945   6.1856   6.2620   6.6229   6.6623   6.7034   6.7178
  6.7391   6.7755   6.7867   6.8171   6.8236   6.8475   6.9726   7.0440
  7.0510   7.1343   7.2183   7.2394   7.2525   7.2736   7.3120   7.3511
  7.4056   7.5076   7.5486   7.6132   7.7378   7.7595   7.8881   8.6864
 35.9539  36.0100  50.0171  50.1749  50.1985  50.2889
 --------------------------------------------------------------
 
 -----------------------------------------------------------------
                    Cartesian Multipole Moments
 -----------------------------------------------------------------
    Charge (ESU x 10^10)
                -0.0000
    Dipole Moment (Debye)
         X       0.7748      Y       0.6546      Z       0.0507
       Tot       1.0155
    Quadrupole Moments (Debye-Ang)
        XX     -31.9441     XY       0.2533     YY     -31.2885
        XZ       1.2002     YZ       2.6661     ZZ     -32.5701
    Octopole Moments (Debye-Ang^2)
       XXX     -31.1495    XXY     -10.7700    XYY      -9.1961
       YYY     -34.8579    XXZ     -92.7642    XYZ      -0.8423
       YYZ     -87.2207    XZZ      -8.1916    YZZ       0.0599
       ZZZ    -279.9485
    Hexadecapole Moments (Debye-Ang^3)
      XXXX    -141.2532   XXXY     -58.4326   XXYY     -81.4089
      XYYY     -59.6321   YYYY    -355.6958   XXXZ     -85.8314
      XXYZ      -9.0651   XYYZ     -23.3668   YYYZ     -23.2734
      XXZZ    -314.0489   XYZZ     -26.6444   YYZZ    -326.6854
      XZZZ     -76.0432   YZZZ      22.7615   ZZZZ   -1738.1958
 -----------------------------------------------------------------
Archival summary:
1\1\centos77-c5\SP\ProcedureUnspecified\BasisUnspecified\42(3)\shihchen\MonJul1315:44:302020MonJul1315:44:302020\0\\#,ProcedureUnspecified,BasisUnspecified,\\0,3\N\O,1,1.19436\O,1,1.19568,2,151\O,1,1.60887,2,98.1773,3,179.005,0\N,4,1.67436,1,108.584,2,-177.185,0\O,5,1.17057,4,118.797,1,95.6949,0\\\@

 Total job time:  13.79s(wall), 72.67s(cpu) 
 Mon Jul 13 15:44:30 2020

        *************************************************************
        *                                                           *
        *  Thank you very much for using Q-Chem.  Have a nice day.  *
        *                                                           *
        *************************************************************


