                  Welcome to Q-Chem
     A Quantum Leap Into The Future Of Chemistry


 Q-Chem 5.3 (devel), Q-Chem, Inc., Pleasanton, CA (2020)

 Yihan Shao,  Zhengting Gan,  E. Epifanovsky,  A. T. B. Gilbert,  M. Wormit,  
 J. Kussmann,  A. W. Lange,  A. Behn,  Jia Deng,  Xintian Feng,  D. Ghosh,  
 M. Goldey,  P. R. Horn,  L. D. Jacobson,  I. Kaliman,  T. Kus,  A. Landau,  
 Jie Liu,  E. I. Proynov,  R. M. Richard,  R. P. Steele,  E. J. Sundstrom,  
 H. L. Woodcock III,  P. M. Zimmerman,  D. Zuev,  B. Alam,  B. Albrecht,  
 E. Alguire,  S. A. Baeppler,  D. Barton,  Z. Benda,  Y. A. Bernard,  
 E. J. Berquist,  K. B. Bravaya,  H. Burton,  K. Carter-Fenk,  D. Casanova,  
 Chun-Min Chang,  Yunqing Chen,  A. Chien,  K. D. Closser,  M. P. Coons,  
 S. Coriani,  S. Dasgupta,  A. L. Dempwolff,  M. Diedenhofen,  Hainam Do,  
 R. G. Edgar,  Po-Tung Fang,  S. Faraji,  S. Fatehi,  Qingguo Feng,  
 J. Fosso-Tande,  J. Gayvert,  Qinghui Ge,  A. Ghysels,  G. Gidofalvi,  
 J. Gomes,  J. Gonthier,  A. Gunina,  D. Hait,  M. W. D. Hanson-Heine,  
 P. H. P. Harbach,  A. W. Hauser,  M. F. Herbst,  J. E. Herr,  
 E. G. Hohenstein,  Z. C. Holden,  Kerwin Hui,  B. C. Huynh,  T.-C. Jagau,  
 Hyunjun Ji,  B. Kaduk,  K. Khistyaev,  Jaehoon Kim,  P. Klunzinger,  K. Koh,  
 D. Kosenkov,  L. Koulias,  T. Kowalczyk,  C. M. Krauter,  A. Kunitsa,  
 Ka Un Lao,  A. Laurent,  K. V. Lawler,  Joonho Lee,  D. Lefrancois,  
 S. Lehtola,  D. S. Levine,  Yi-Pei Li,  You-Sheng Lin,  Fenglai Liu,  
 Kuan-Yu Liu,  E. Livshits,  M. Loipersberger,  A. Luenser,  P. Manohar,  
 E. Mansoor,  S. F. Manzer,  Shan-Ping Mao,  Yuezhi Mao,  N. Mardirossian,  
 A. V. Marenich,  T. Markovich,  L. A. Martinez-Martinez,  S. A. Maurer,  
 N. J. Mayhall,  S. C. McKenzie,  J.-M. Mewes,  P. Morgante,  A. F. Morrison,  
 J. W. Mullinax,  K. Nanda,  T. S. Nguyen-Beck,  R. Olivares-Amaya,  
 K. J. Oosterbaan,  J. A. Parkhill,  S. K. Paul,  F. Pavosevic,  Zheng Pei,  
 T. M. Perrine,  F. Plasser,  P. Pokhilko,  S. Prager,  A. Prociuk,  
 E. Ramos,  B. Rana,  D. R. Rehn,  F. Rob,  M. Scheurer,  M. Schneider,  
 N. Sergueev,  S. M. Sharada,  S. Sharma,  D. W. Small,  T. Stauch,  
 C. J. Stein,  T. Stein,  Yu-Chuan Su,  S. P. Veccham,  Zhen Tao,  
 A. J. W. Thom,  A. Tkatchenko,  T. Tsuchimochi,  N. M. Tubman,  L. Vogt,  
 M. L. Vidal,  O. Vydrov,  M. A. Watson,  J. Wenzel,  M. de Wergifosse,  
 T. A. Wesolowski,  A. White,  J. Witte,  A. Yamada,  Jun Yang,  K. Yao,  
 S. Yeganeh,  S. R. Yost,  Zhi-Qiang You,  A. Zech,  Igor Ying Zhang,  
 Xing Zhang,  Yan Zhao,  Ying Zhu,  B. R. Brooks,  G. K. L. Chan,  
 C. J. Cramer,  M. S. Gordon,  W. J. Hehre,  A. Klamt,  M. W. Schmidt,  
 C. D. Sherrill,  D. G. Truhlar,  A. Aspuru-Guzik,  R. Baer,  A. T. Bell,  
 N. A. Besley,  Jeng-Da Chai,  A. E. DePrince, III,  R. A. DiStasio Jr.,  
 A. Dreuw,  B. D. Dunietz,  T. R. Furlani,  Chao-Ping Hsu,  Yousung Jung,  
 Jing Kong,  D. S. Lambrecht,  WanZhen Liang,  C. Ochsenfeld,  
 V. A. Rassolov,  L. V. Slipchenko,  J. E. Subotnik,  T. Van Voorhis,  
 J. M. Herbert,  A. I. Krylov,  P. M. W. Gill,  M. Head-Gordon

 Contributors to earlier versions of Q-Chem not listed above: 
 R. D. Adamson,  B. Austin,  J. Baker,  G. J. O. Beran,  K. Brandhorst,  
 S. T. Brown,  E. F. C. Byrd,  A. K. Chakraborty,  C.-L. Cheng,  
 Siu Hung Chien,  D. M. Chipman,  D. L. Crittenden,  H. Dachsel,  
 R. J. Doerksen,  A. D. Dutoi,  L. Fusti-Molnar,  W. A. Goddard III,  
 A. Golubeva-Zadorozhnaya,  S. R. Gwaltney,  G. Hawkins,  A. Heyden,  
 S. Hirata,  G. Kedziora,  F. J. Keil,  C. Kelley,  Jihan Kim,  R. A. King,  
 R. Z. Khaliullin,  P. P. Korambath,  W. Kurlancheek,  A. M. Lee,  M. S. Lee,  
 S. V. Levchenko,  Ching Yeh Lin,  D. Liotard,  R. C. Lochan,  I. Lotan,  
 P. E. Maslen,  N. Nair,  D. P. O'Neill,  D. Neuhauser,  E. Neuscamman,  
 C. M. Oana,  R. Olson,  B. Peters,  R. Peverati,  P. A. Pieniazek,  
 Y. M. Rhee,  J. Ritchie,  M. A. Rohrdanz,  E. Rosta,  N. J. Russ,  
 H. F. Schaefer III,  N. E. Schultz,  N. Shenvi,  A. C. Simmonett,  A. Sodt,  
 D. Stuck,  K. S. Thanthiriwatte,  V. Vanovschi,  Tao Wang,  A. Warshel,  
 C. F. Williams,  Q. Wu,  X. Xu,  W. Zhang

 Please cite Q-Chem as follows:
 Y. Shao et al., Mol. Phys. 113, 184-215 (2015)
 DOI: 10.1080/00268976.2014.952696

 Q-Chem 5.3.0 for Intel X86 EM64T Linux

 Parts of Q-Chem use Armadillo 9.800.1 (Horizon Scraper).
 http://arma.sourceforge.net/

 Q-Chem begins on Mon Jul 13 15:45:37 2020  

Host: centos77-c5
0

     Scratch files written to /tmp/29025.centos77-h1/qchem99659//
Processing $rem in /opt/qchem-5.3.0-intel2020u1//config/preferences:
Processing $rem in /home/shihchengli/.qchemrc:

Checking the input file for inconsistencies... 	...done.

--------------------------------------------------------------
User input:
--------------------------------------------------------------
$rem
   JOBTYPE  sp
   EXCHANGE   omegaB97X-D
   BASIS   6-311+G(2df,2pd)
   UNRESTRICTED   True
   max_scf_cycles   250
   geom_opt_max_cycles   1500
   basis2 6-31G*
   scf_algorithm rca_diis
   SYM_IGNORE  TRUE
   print_input   true
   geom_opt_dmax   80
   pop_mulliken false
   XC_GRID 000075000302
$end

$molecule
0 3
N       0.7011352970     1.2280654824     2.4790288314
O       0.3841308727     2.1595910377     1.8715572737
O       1.5845852886     0.9860649241     3.1789947573
N       0.0362240437     -1.1524546320     3.1389815059
O       -0.4784243808     -1.3262351866     4.1758301283
O       -0.2826599911     0.1999574844     2.2559073935
$end
--------------------------------------------------------------
 ----------------------------------------------------------------
             Standard Nuclear Orientation (Angstroms)
    I     Atom           X                Y                Z
 ----------------------------------------------------------------
    1      N       0.7011352970     1.2280654824     2.4790288314
    2      O       0.3841308727     2.1595910377     1.8715572737
    3      O       1.5845852886     0.9860649241     3.1789947573
    4      N       0.0362240437    -1.1524546320     3.1389815059
    5      O      -0.4784243808    -1.3262351866     4.1758301283
    6      O      -0.2826599911     0.1999574844     2.2559073935
 ----------------------------------------------------------------
 Nuclear Repulsion Energy =         233.23685832 hartrees
 There are       24 alpha and       22 beta electrons
 Requested basis set is 6-311+G(2df,2pd)
 There are 48 shells and 204 basis functions

 Total QAlloc Memory Limit   2000 MB
 Mega-Array Size       188 MB
 MEM_STATIC part       192 MB

                       Distance Matrix (Angstroms)
             N (  1)   O (  2)   O (  3)   N (  4)   O (  5)
   O (  2)  1.156397
   O (  3)  1.152823  2.127827
   N (  4)  2.558226  3.563292  2.640509
   O (  5)  3.285567  4.266692  3.255215  1.170520
   O (  6)  1.440362  2.105350  2.226356  1.646367  2.460425
 
 A cutoff of  1.0D-09 yielded   1027 shell pairs
 There are     19156 function pairs (     25105 Cartesian)
 Smallest overlap matrix eigenvalue = 6.65E-04

 Scale SEOQF with 1.000000e-01/1.000000e-01/1.000000e-01

 Standard Electronic Orientation quadrupole field applied
 Nucleus-field energy     =    -0.0000000363 hartrees
 Requested basis set is 6-31G(d)
 There are 24 shells and 84 basis functions
 A cutoff of  1.0D-09 yielded    269 shell pairs
 There are      3538 function pairs (      4066 Cartesian)
 Smallest overlap matrix eigenvalue = 4.25E-03
 Guess from superposition of atomic densities
 Warning:  Energy on first SCF cycle will be non-variational
 SAD guess density has 46.000000 electrons
 Long-range K will be added via erf
 Coulomb attenuation parameter = 0.2 bohr**(-1)
 An unrestricted hybrid HF-DFT SCF calculation will be
 performed using Relaxed Constraint Minimization + Pulay DIIS
 Exchange:     0.2220 Hartree-Fock + 1.0000 wB97X-D + LR-HF
 Correlation:  1.0000 wB97X-D
 Using Euler-Maclaurin-Lebedev (75,302) quadrature formula
 Dispersion:   Grimme D
 SCF converges when DIIS error is below 1.0E-04
 using 6 threads for integral computing
 -------------------------------------------------------
 OpenMP Integral computing Module                
 Release: version 1.0, May 2013, Q-Chem Inc. Pittsburgh 
 -------------------------------------------------------
 using 6 threads for integral computing
 -------------------------------------------------------
 OpenMP Integral computing Module                
 Release: version 1.0, May 2013, Q-Chem Inc. Pittsburgh 
 -------------------------------------------------------
 ---------------------------------------
  Cycle       Energy         DIIS Error
 ---------------------------------------
    1    -411.1710683532      9.20E-02
    2    -409.6729944996      1.89E-02
    3    -409.7722756598      3.94E-03
    4    -409.9100844062      3.88E-03
    5    -409.9144628914      5.71E-04 Done RCA. Switching to DIIS
    6    -409.9204112472      4.70E-04
    7    -409.9207483787      8.47E-05 Convergence criterion met
 ---------------------------------------
 <S^2> = 2.0153
 SCF time:  CPU 12.91 s  wall 2.16 s
 SCF   energy in the small basis set = -409.92074838
 Total energy in the small basis set = -409.92074838
 ----------------------------------------------------
  Cycle       Energy    
 ----------------------------------------------------
    1     -41.8078679810     -4.18E+01
 Long-range K will be added via erf
 Coulomb attenuation parameter = 0.2 bohr**(-1)
 An unrestricted hybrid HF-DFT SCF calculation will be
 performed using Relaxed Constraint Minimization + Pulay DIIS
 Exchange:     0.2220 Hartree-Fock + 1.0000 wB97X-D + LR-HF
 Correlation:  1.0000 wB97X-D
 Using Euler-Maclaurin-Lebedev (75,302) quadrature formula
 Dispersion:   Grimme D
 SCF converges when DIIS error is below 1.0E-05
 Basis2 calculation detected. Using small basis as guess for larger.
 SCFMinFind is unable to tell whether the solution found is close.
 Resetting ReadMinima to 0 and attempting to follow guess.
 SCFMinFind following SCF Guess.
 using 6 threads for integral computing
 -------------------------------------------------------
 OpenMP Integral computing Module                
 Release: version 1.0, May 2013, Q-Chem Inc. Pittsburgh 
 -------------------------------------------------------
 using 6 threads for integral computing
 -------------------------------------------------------
 OpenMP Integral computing Module                
 Release: version 1.0, May 2013, Q-Chem Inc. Pittsburgh 
 -------------------------------------------------------
 ---------------------------------------
  Cycle       Energy         DIIS Error
 ---------------------------------------
    1    -410.0157114053      8.00E-03
    2    -410.0306335131      3.84E-03
    3    -410.0490494509      9.78E-04 Done RCA. Switching to DIIS
    4    -410.0746908576      9.85E-04
    5    -410.0778273899      1.74E-04
    6    -410.0780491436      5.37E-05
    7    -410.0781457180      2.98E-05
    8    -410.0781704018      1.96E-05
    9    -410.0781832552      7.33E-06 Convergence criterion met
 ---------------------------------------
 <S^2> = 2.0183
 SCF time:  CPU 54.56 s  wall 9.12 s
 SCF   energy in the final basis set = -410.07818326
 Total energy in the final basis set = -410.07818326
 
 --------------------------------------------------------------
 
                    Orbital Energies (a.u.)
 --------------------------------------------------------------
 
 Alpha MOs
 -- Occupied --
-19.4006 -19.3946 -19.3518 -19.3489 -14.7736 -14.6153  -1.4691  -1.3631
 -1.2880  -1.1994  -0.8676  -0.7727  -0.7338  -0.7248  -0.6868  -0.6557
 -0.6319  -0.6279  -0.5014  -0.4918  -0.4731  -0.4636  -0.4365  -0.3361
 -- Virtual --
 -0.0108   0.0150   0.0760   0.1158   0.1228   0.1352   0.1380   0.1695
  0.1793   0.1844   0.2274   0.2426   0.2502   0.2712   0.2743   0.2905
  0.3055   0.3263   0.3456   0.3478   0.3538   0.3617   0.3713   0.3936
  0.4131   0.4319   0.4513   0.4608   0.4955   0.5775   0.7428   0.7648
  0.8031   0.8300   0.8644   0.8774   0.9243   0.9486   0.9770   1.0164
  1.0259   1.0507   1.0601   1.0710   1.0771   1.0819   1.1243   1.1287
  1.1413   1.1609   1.1710   1.1727   1.2241   1.2493   1.2576   1.3179
  1.4508   1.4585   1.5144   1.5522   1.5584   1.5935   1.6039   1.6303
  1.6521   1.6864   1.7142   1.7997   1.8380   1.9108   1.9345   1.9649
  2.0006   2.1332   2.2044   2.2550   2.3334   2.3955   2.4563   2.5045
  2.5574   2.5889   2.7101   2.8526   3.5033   3.5432   3.5778   3.6187
  3.6322   3.6545   3.6824   3.7059   3.7368   3.7790   3.8002   3.8966
  3.9509   3.9922   4.0655   4.0730   4.0798   4.3913   4.3962   4.4430
  4.5269   4.6012   4.6510   4.6852   4.7050   4.7066   4.7314   4.7784
  4.8239   4.9145   4.9955   5.0009   5.0238   5.0262   5.0346   5.0387
  5.0622   5.0837   5.0944   5.1113   5.1255   5.1526   5.1781   5.1841
  5.2548   5.2780   5.3253   5.4034   5.4240   5.4404   5.4909   5.5274
  5.5532   5.5850   5.6386   5.6799   5.8503   5.8608   6.0316   6.1188
  6.4583   6.6420   6.6482   6.6746   6.7061   6.7314   6.7442   6.7605
  6.7926   6.8219   6.8897   6.9557   7.0294   7.0931   7.1260   7.1510
  7.1702   7.1882   7.2094   7.2968   7.3386   7.4032   7.4612   7.5764
  7.6736   7.6960   7.8385   7.8853   7.9251   8.5049  35.9145  36.2452
 49.9958  50.1672  50.2870  50.3472
 
 Beta MOs
 -- Occupied --
-19.3873 -19.3767 -19.3497 -19.3493 -14.7734 -14.5973  -1.4655  -1.3247
 -1.2858  -1.1647  -0.8240  -0.7418  -0.7322  -0.7093  -0.6789  -0.6020
 -0.5782  -0.5546  -0.4765  -0.4707  -0.4675  -0.4537
 -- Virtual --
 -0.1434  -0.0083  -0.0056   0.0654   0.0866   0.1225   0.1350   0.1403
  0.1421   0.1718   0.1827   0.1893   0.2285   0.2468   0.2532   0.2727
  0.2774   0.2928   0.3128   0.3282   0.3469   0.3492   0.3561   0.3636
  0.3735   0.4057   0.4179   0.4359   0.4541   0.4653   0.5138   0.5834
  0.7513   0.7743   0.8178   0.8481   0.8785   0.8825   0.9272   0.9557
  0.9877   1.0260   1.0335   1.0625   1.0696   1.0813   1.0898   1.1027
  1.1325   1.1415   1.1510   1.1673   1.1830   1.1874   1.2358   1.2596
  1.2712   1.3327   1.4651   1.4729   1.5189   1.5568   1.5613   1.6043
  1.6242   1.6520   1.6679   1.7130   1.7233   1.8035   1.8456   1.9238
  1.9398   1.9797   2.0155   2.1490   2.2150   2.2687   2.3471   2.4064
  2.4701   2.5198   2.5597   2.5948   2.7175   2.8562   3.5284   3.5795
  3.5903   3.6342   3.6508   3.6583   3.6935   3.7214   3.7512   3.8084
  3.8658   3.9164   3.9775   4.0107   4.0786   4.0830   4.0893   4.3932
  4.3980   4.4488   4.5334   4.6286   4.6828   4.7064   4.7132   4.7281
  4.7691   4.8155   4.8684   4.9654   5.0110   5.0172   5.0359   5.0386
  5.0563   5.0674   5.0797   5.0887   5.1163   5.1312   5.1392   5.1782
  5.2051   5.2170   5.2651   5.3054   5.3428   5.4217   5.4369   5.4467
  5.5127   5.5501   5.5689   5.5951   5.6613   5.6936   5.8561   5.8658
  6.0504   6.1571   6.4671   6.6591   6.6815   6.6947   6.7290   6.7634
  6.7953   6.8001   6.8089   6.8280   6.8929   6.9886   7.0465   7.1133
  7.1298   7.1535   7.1994   7.2091   7.2367   7.3024   7.3651   7.4091
  7.4871   7.5853   7.7015   7.7244   7.8521   7.9010   7.9286   8.5073
 35.9362  36.2456  50.0098  50.1840  50.2882  50.3477
 --------------------------------------------------------------
 
 -----------------------------------------------------------------
                    Cartesian Multipole Moments
 -----------------------------------------------------------------
    Charge (ESU x 10^10)
                -0.0000
    Dipole Moment (Debye)
         X      -0.0249      Y      -0.4543      Z       0.0516
       Tot       0.4579
    Quadrupole Moments (Debye-Ang)
        XX     -32.7713     XY      -0.7426     YY     -32.9129
        XZ      -1.2729     YZ      -0.0088     ZZ     -32.2452
    Octopole Moments (Debye-Ang^2)
       XXX     -33.1292    XXY     -12.3271    XYY     -10.9173
       YYY     -39.6633    XXZ     -95.2823    XYZ      -3.5629
       YYZ     -90.4365    XZZ     -16.0470    YZZ      -7.2650
       ZZZ    -276.9763
    Hexadecapole Moments (Debye-Ang^3)
      XXXX    -137.4053   XXXY     -62.0502   XXYY     -82.2093
      XYYY     -64.1225   YYYY    -358.6621   XXXZ     -88.6192
      XXYZ     -13.5377   XYYZ     -27.2989   YYYZ     -35.7173
      XXZZ    -319.7332   XYZZ     -34.4057   YYZZ    -331.4074
      XZZZ     -98.8848   YZZZ      -0.8181   ZZZZ   -1713.3014
 -----------------------------------------------------------------
Archival summary:
1\1\centos77-c5\SP\ProcedureUnspecified\BasisUnspecified\42(3)\shihchen\MonJul1315:45:512020MonJul1315:45:512020\0\\#,ProcedureUnspecified,BasisUnspecified,\\0,3\N\O,1,1.15282\O,1,1.1564,2,134.277\O,1,1.44036,2,117.881,3,-179.683,0\N,4,1.64637,1,111.775,2,2.57718,0\O,5,1.17052,4,120.792,1,95.6949,0\\\@

 Total job time:  13.66s(wall), 71.78s(cpu) 
 Mon Jul 13 15:45:51 2020

        *************************************************************
        *                                                           *
        *  Thank you very much for using Q-Chem.  Have a nice day.  *
        *                                                           *
        *************************************************************


