                  Welcome to Q-Chem
     A Quantum Leap Into The Future Of Chemistry


 Q-Chem 5.3 (devel), Q-Chem, Inc., Pleasanton, CA (2020)

 Yihan Shao,  Zhengting Gan,  E. Epifanovsky,  A. T. B. Gilbert,  M. Wormit,  
 J. Kussmann,  A. W. Lange,  A. Behn,  Jia Deng,  Xintian Feng,  D. Ghosh,  
 M. Goldey,  P. R. Horn,  L. D. Jacobson,  I. Kaliman,  T. Kus,  A. Landau,  
 Jie Liu,  E. I. Proynov,  R. M. Richard,  R. P. Steele,  E. J. Sundstrom,  
 H. L. Woodcock III,  P. M. Zimmerman,  D. Zuev,  B. Alam,  B. Albrecht,  
 E. Alguire,  S. A. Baeppler,  D. Barton,  Z. Benda,  Y. A. Bernard,  
 E. J. Berquist,  K. B. Bravaya,  H. Burton,  K. Carter-Fenk,  D. Casanova,  
 Chun-Min Chang,  Yunqing Chen,  A. Chien,  K. D. Closser,  M. P. Coons,  
 S. Coriani,  S. Dasgupta,  A. L. Dempwolff,  M. Diedenhofen,  Hainam Do,  
 R. G. Edgar,  Po-Tung Fang,  S. Faraji,  S. Fatehi,  Qingguo Feng,  
 J. Fosso-Tande,  J. Gayvert,  Qinghui Ge,  A. Ghysels,  G. Gidofalvi,  
 J. Gomes,  J. Gonthier,  A. Gunina,  D. Hait,  M. W. D. Hanson-Heine,  
 P. H. P. Harbach,  A. W. Hauser,  M. F. Herbst,  J. E. Herr,  
 E. G. Hohenstein,  Z. C. Holden,  Kerwin Hui,  B. C. Huynh,  T.-C. Jagau,  
 Hyunjun Ji,  B. Kaduk,  K. Khistyaev,  Jaehoon Kim,  P. Klunzinger,  K. Koh,  
 D. Kosenkov,  L. Koulias,  T. Kowalczyk,  C. M. Krauter,  A. Kunitsa,  
 Ka Un Lao,  A. Laurent,  K. V. Lawler,  Joonho Lee,  D. Lefrancois,  
 S. Lehtola,  D. S. Levine,  Yi-Pei Li,  You-Sheng Lin,  Fenglai Liu,  
 Kuan-Yu Liu,  E. Livshits,  M. Loipersberger,  A. Luenser,  P. Manohar,  
 E. Mansoor,  S. F. Manzer,  Shan-Ping Mao,  Yuezhi Mao,  N. Mardirossian,  
 A. V. Marenich,  T. Markovich,  L. A. Martinez-Martinez,  S. A. Maurer,  
 N. J. Mayhall,  S. C. McKenzie,  J.-M. Mewes,  P. Morgante,  A. F. Morrison,  
 J. W. Mullinax,  K. Nanda,  T. S. Nguyen-Beck,  R. Olivares-Amaya,  
 K. J. Oosterbaan,  J. A. Parkhill,  S. K. Paul,  F. Pavosevic,  Zheng Pei,  
 T. M. Perrine,  F. Plasser,  P. Pokhilko,  S. Prager,  A. Prociuk,  
 E. Ramos,  B. Rana,  D. R. Rehn,  F. Rob,  M. Scheurer,  M. Schneider,  
 N. Sergueev,  S. M. Sharada,  S. Sharma,  D. W. Small,  T. Stauch,  
 C. J. Stein,  T. Stein,  Yu-Chuan Su,  S. P. Veccham,  Zhen Tao,  
 A. J. W. Thom,  A. Tkatchenko,  T. Tsuchimochi,  N. M. Tubman,  L. Vogt,  
 M. L. Vidal,  O. Vydrov,  M. A. Watson,  J. Wenzel,  M. de Wergifosse,  
 T. A. Wesolowski,  A. White,  J. Witte,  A. Yamada,  Jun Yang,  K. Yao,  
 S. Yeganeh,  S. R. Yost,  Zhi-Qiang You,  A. Zech,  Igor Ying Zhang,  
 Xing Zhang,  Yan Zhao,  Ying Zhu,  B. R. Brooks,  G. K. L. Chan,  
 C. J. Cramer,  M. S. Gordon,  W. J. Hehre,  A. Klamt,  M. W. Schmidt,  
 C. D. Sherrill,  D. G. Truhlar,  A. Aspuru-Guzik,  R. Baer,  A. T. Bell,  
 N. A. Besley,  Jeng-Da Chai,  A. E. DePrince, III,  R. A. DiStasio Jr.,  
 A. Dreuw,  B. D. Dunietz,  T. R. Furlani,  Chao-Ping Hsu,  Yousung Jung,  
 Jing Kong,  D. S. Lambrecht,  WanZhen Liang,  C. Ochsenfeld,  
 V. A. Rassolov,  L. V. Slipchenko,  J. E. Subotnik,  T. Van Voorhis,  
 J. M. Herbert,  A. I. Krylov,  P. M. W. Gill,  M. Head-Gordon

 Contributors to earlier versions of Q-Chem not listed above: 
 R. D. Adamson,  B. Austin,  J. Baker,  G. J. O. Beran,  K. Brandhorst,  
 S. T. Brown,  E. F. C. Byrd,  A. K. Chakraborty,  C.-L. Cheng,  
 Siu Hung Chien,  D. M. Chipman,  D. L. Crittenden,  H. Dachsel,  
 R. J. Doerksen,  A. D. Dutoi,  L. Fusti-Molnar,  W. A. Goddard III,  
 A. Golubeva-Zadorozhnaya,  S. R. Gwaltney,  G. Hawkins,  A. Heyden,  
 S. Hirata,  G. Kedziora,  F. J. Keil,  C. Kelley,  Jihan Kim,  R. A. King,  
 R. Z. Khaliullin,  P. P. Korambath,  W. Kurlancheek,  A. M. Lee,  M. S. Lee,  
 S. V. Levchenko,  Ching Yeh Lin,  D. Liotard,  R. C. Lochan,  I. Lotan,  
 P. E. Maslen,  N. Nair,  D. P. O'Neill,  D. Neuhauser,  E. Neuscamman,  
 C. M. Oana,  R. Olson,  B. Peters,  R. Peverati,  P. A. Pieniazek,  
 Y. M. Rhee,  J. Ritchie,  M. A. Rohrdanz,  E. Rosta,  N. J. Russ,  
 H. F. Schaefer III,  N. E. Schultz,  N. Shenvi,  A. C. Simmonett,  A. Sodt,  
 D. Stuck,  K. S. Thanthiriwatte,  V. Vanovschi,  Tao Wang,  A. Warshel,  
 C. F. Williams,  Q. Wu,  X. Xu,  W. Zhang

 Please cite Q-Chem as follows:
 Y. Shao et al., Mol. Phys. 113, 184-215 (2015)
 DOI: 10.1080/00268976.2014.952696

 Q-Chem 5.3.0 for Intel X86 EM64T Linux

 Parts of Q-Chem use Armadillo 9.800.1 (Horizon Scraper).
 http://arma.sourceforge.net/

 Q-Chem begins on Mon Jul 13 15:32:13 2020  

Host: centos77-c5
0

     Scratch files written to /tmp/29025.centos77-h1/qchem122769//
Processing $rem in /opt/qchem-5.3.0-intel2020u1//config/preferences:
Processing $rem in /home/shihchengli/.qchemrc:

Checking the input file for inconsistencies... 	...done.

--------------------------------------------------------------
User input:
--------------------------------------------------------------
$rem
   JOBTYPE  sp
   EXCHANGE   omegaB97X-D
   BASIS   6-311+G(2df,2pd)
   UNRESTRICTED   True
   max_scf_cycles   250
   geom_opt_max_cycles   1500
   basis2 6-31G*
   scf_algorithm rca_diis
   SYM_IGNORE  TRUE
   print_input   true
   geom_opt_dmax   80
   pop_mulliken false
   XC_GRID 000075000302
$end

$molecule
0 3
N       0.7051573905     1.3039680871     2.4231548915
O       0.6222532151     2.2302333206     1.7091893032
O       1.4707597035     1.0300229656     3.2728681415
N       -0.2176750484     -0.9511402605     3.2762672759
O       -0.2352322511     -1.6902965142     4.1873172653
O       -0.4002718795     0.1722015114     2.2315030126
$end
--------------------------------------------------------------
 ----------------------------------------------------------------
             Standard Nuclear Orientation (Angstroms)
    I     Atom           X                Y                Z
 ----------------------------------------------------------------
    1      N       0.7051573905     1.3039680871     2.4231548915
    2      O       0.6222532151     2.2302333206     1.7091893032
    3      O       1.4707597035     1.0300229656     3.2728681415
    4      N      -0.2176750484    -0.9511402605     3.2762672759
    5      O      -0.2352322511    -1.6902965142     4.1873172653
    6      O      -0.4002718795     0.1722015114     2.2315030126
 ----------------------------------------------------------------
 Nuclear Repulsion Energy =         225.97029772 hartrees
 There are       24 alpha and       22 beta electrons
 Requested basis set is 6-311+G(2df,2pd)
 There are 48 shells and 204 basis functions

 Total QAlloc Memory Limit   2000 MB
 Mega-Array Size       188 MB
 MEM_STATIC part       192 MB

                       Distance Matrix (Angstroms)
             N (  1)   O (  2)   O (  3)   N (  4)   O (  5)
   O (  2)  1.172428
   O (  3)  1.176098  2.146057
   N (  4)  2.581653  3.644496  2.603043
   O (  5)  3.600309  4.716668  3.338677  1.173317
   O (  6)  1.593612  2.356664  2.306742  1.544918  2.705799
 
 A cutoff of  1.0D-09 yielded   1012 shell pairs
 There are     18817 function pairs (     24661 Cartesian)
 Smallest overlap matrix eigenvalue = 6.46E-04

 Scale SEOQF with 1.000000e-01/1.000000e-01/1.000000e-01

 Standard Electronic Orientation quadrupole field applied
 Nucleus-field energy     =    -0.0000000361 hartrees
 Requested basis set is 6-31G(d)
 There are 24 shells and 84 basis functions
 A cutoff of  1.0D-09 yielded    262 shell pairs
 There are      3485 function pairs (      4009 Cartesian)
 Smallest overlap matrix eigenvalue = 5.13E-03
 Guess from superposition of atomic densities
 Warning:  Energy on first SCF cycle will be non-variational
 SAD guess density has 46.000000 electrons
 Long-range K will be added via erf
 Coulomb attenuation parameter = 0.2 bohr**(-1)
 An unrestricted hybrid HF-DFT SCF calculation will be
 performed using Relaxed Constraint Minimization + Pulay DIIS
 Exchange:     0.2220 Hartree-Fock + 1.0000 wB97X-D + LR-HF
 Correlation:  1.0000 wB97X-D
 Using Euler-Maclaurin-Lebedev (75,302) quadrature formula
 Dispersion:   Grimme D
 SCF converges when DIIS error is below 1.0E-04
 using 6 threads for integral computing
 -------------------------------------------------------
 OpenMP Integral computing Module                
 Release: version 1.0, May 2013, Q-Chem Inc. Pittsburgh 
 -------------------------------------------------------
 using 6 threads for integral computing
 -------------------------------------------------------
 OpenMP Integral computing Module                
 Release: version 1.0, May 2013, Q-Chem Inc. Pittsburgh 
 -------------------------------------------------------
 ---------------------------------------
  Cycle       Energy         DIIS Error
 ---------------------------------------
    1    -410.9525329688      8.72E-02
    2    -409.6195828530      1.88E-02
    3    -409.7202348952      3.94E-03
    4    -409.8594262238      4.29E-03
    5    -409.8647570453      8.08E-04 Done RCA. Switching to DIIS
    6    -409.8723029174      8.47E-04
    7    -409.8729852239      1.83E-04
    8    -409.8731256350      1.13E-04
    9    -409.8732275937      7.09E-05 Convergence criterion met
 ---------------------------------------
 <S^2> = 2.0140
 SCF time:  CPU 15.50 s  wall 2.60 s
 SCF   energy in the small basis set = -409.87322759
 Total energy in the small basis set = -409.87322759
 ----------------------------------------------------
  Cycle       Energy    
 ----------------------------------------------------
    1     -41.7326264185     -4.17E+01
 Long-range K will be added via erf
 Coulomb attenuation parameter = 0.2 bohr**(-1)
 An unrestricted hybrid HF-DFT SCF calculation will be
 performed using Relaxed Constraint Minimization + Pulay DIIS
 Exchange:     0.2220 Hartree-Fock + 1.0000 wB97X-D + LR-HF
 Correlation:  1.0000 wB97X-D
 Using Euler-Maclaurin-Lebedev (75,302) quadrature formula
 Dispersion:   Grimme D
 SCF converges when DIIS error is below 1.0E-05
 Basis2 calculation detected. Using small basis as guess for larger.
 SCFMinFind is unable to tell whether the solution found is close.
 Resetting ReadMinima to 0 and attempting to follow guess.
 SCFMinFind following SCF Guess.
 using 6 threads for integral computing
 -------------------------------------------------------
 OpenMP Integral computing Module                
 Release: version 1.0, May 2013, Q-Chem Inc. Pittsburgh 
 -------------------------------------------------------
 using 6 threads for integral computing
 -------------------------------------------------------
 OpenMP Integral computing Module                
 Release: version 1.0, May 2013, Q-Chem Inc. Pittsburgh 
 -------------------------------------------------------
 ---------------------------------------
  Cycle       Energy         DIIS Error
 ---------------------------------------
    1    -409.9641566730      8.03E-03
    2    -409.9749216923      4.08E-03
    3    -409.9968439815      8.91E-04 Done RCA. Switching to DIIS
    4    -410.0260751086      9.23E-04
    5    -410.0288948243      2.38E-04
    6    -410.0291913259      5.50E-05
    7    -410.0292963848      4.83E-05
    8    -410.0293361850      2.03E-05
    9    -410.0293699863      1.67E-05
   10    -410.0293831956      1.05E-05
   11    -410.0293945105      7.37E-06 Convergence criterion met
 ---------------------------------------
 <S^2> = 2.0140
 SCF time:  CPU 63.13 s  wall 10.56 s
 SCF   energy in the final basis set = -410.02939451
 Total energy in the final basis set = -410.02939451
 
 --------------------------------------------------------------
 
                    Orbital Energies (a.u.)
 --------------------------------------------------------------
 
 Alpha MOs
 -- Occupied --
-19.4008 -19.3781 -19.3598 -19.3500 -14.7584 -14.6325  -1.4355  -1.3625
 -1.2647  -1.1754  -0.8670  -0.7702  -0.7185  -0.7073  -0.6784  -0.6619
 -0.6367  -0.6310  -0.4848  -0.4799  -0.4686  -0.4512  -0.3598  -0.3414
 -- Virtual --
 -0.0574  -0.0146   0.0187   0.0908   0.1139   0.1369   0.1416   0.1644
  0.1773   0.1956   0.2337   0.2514   0.2525   0.2582   0.2816   0.2946
  0.3147   0.3317   0.3399   0.3471   0.3507   0.3562   0.3686   0.4063
  0.4347   0.4448   0.4493   0.4674   0.5213   0.5458   0.7469   0.7639
  0.7953   0.8627   0.8963   0.9066   0.9331   0.9595   0.9810   1.0056
  1.0254   1.0315   1.0670   1.0692   1.0770   1.1067   1.1170   1.1345
  1.1386   1.1396   1.1559   1.1747   1.1997   1.2250   1.2509   1.3516
  1.3716   1.4923   1.5229   1.5370   1.5652   1.5731   1.5927   1.6288
  1.6760   1.6936   1.7299   1.7416   1.7989   1.8250   1.8964   1.9200
  2.0152   2.1433   2.2379   2.2679   2.4005   2.4117   2.5252   2.5363
  2.5734   2.6682   2.7743   2.8400   3.4637   3.5070   3.5172   3.5272
  3.6196   3.6551   3.6633   3.7040   3.7498   3.7712   3.7865   3.8717
  3.9245   3.9405   4.0086   4.0395   4.1325   4.3592   4.4360   4.4618
  4.4642   4.5090   4.6600   4.6652   4.6856   4.7102   4.7249   4.7454
  4.7597   4.8680   5.0121   5.0254   5.0313   5.0334   5.0381   5.0414
  5.0490   5.0615   5.0950   5.1151   5.1353   5.1407   5.1601   5.1731
  5.2325   5.2383   5.3500   5.3614   5.3853   5.3985   5.4363   5.4536
  5.5222   5.5535   5.6267   5.6571   5.6832   5.7685   5.9448   6.1387
  6.2776   6.3213   6.5733   6.7210   6.7258   6.7360   6.7542   6.7707
  6.7857   6.8249   6.8856   6.9634   6.9813   7.0501   7.1154   7.1630
  7.1682   7.1706   7.1781   7.2681   7.2886   7.3539   7.4661   7.5681
  7.6537   7.7073   7.7566   7.8869   8.2935   8.3489  35.9382  36.1580
 50.0130  50.2047  50.2526  50.2694
 
 Beta MOs
 -- Occupied --
-19.3866 -19.3631 -19.3580 -19.3501 -14.7564 -14.6101  -1.4316  -1.3245
 -1.2619  -1.1324  -0.8201  -0.7447  -0.7044  -0.7027  -0.6715  -0.6129
 -0.5936  -0.5627  -0.4688  -0.4615  -0.4607  -0.4454
 -- Virtual --
 -0.0519  -0.0312  -0.0137   0.0012   0.0632   0.1004   0.1200   0.1422
  0.1453   0.1685   0.1824   0.1989   0.2365   0.2539   0.2542   0.2624
  0.2856   0.2989   0.3177   0.3334   0.3456   0.3505   0.3539   0.3604
  0.3739   0.4096   0.4381   0.4493   0.4534   0.4721   0.5418   0.5795
  0.7534   0.7801   0.8122   0.8841   0.9062   0.9153   0.9380   0.9705
  1.0002   1.0172   1.0382   1.0428   1.0683   1.0815   1.0947   1.1128
  1.1263   1.1409   1.1434   1.1501   1.1667   1.1825   1.2097   1.2383
  1.2624   1.3601   1.3835   1.5021   1.5285   1.5381   1.5712   1.5792
  1.6143   1.6498   1.6822   1.7076   1.7485   1.7532   1.8059   1.8325
  1.9008   1.9269   2.0419   2.1447   2.2557   2.2760   2.4121   2.4239
  2.5358   2.5476   2.5782   2.6818   2.7835   2.8622   3.4794   3.5469
  3.5655   3.5720   3.6349   3.6633   3.6680   3.7096   3.7588   3.8057
  3.8522   3.8879   3.9511   3.9580   4.0294   4.0416   4.1531   4.3851
  4.4435   4.4657   4.4704   4.5128   4.6863   4.6872   4.7488   4.7545
  4.7732   4.7826   4.8011   4.8889   5.0233   5.0343   5.0420   5.0463
  5.0527   5.0590   5.0615   5.0758   5.1054   5.1245   5.1518   5.1638
  5.1767   5.1885   5.2570   5.2607   5.3610   5.3863   5.3962   5.4087
  5.4413   5.4695   5.5402   5.5779   5.6317   5.6616   5.6960   5.7982
  5.9530   6.1829   6.2817   6.3388   6.5749   6.7577   6.7692   6.7720
  6.7760   6.7898   6.8014   6.8386   6.8875   6.9657   7.0029   7.0664
  7.1395   7.1643   7.1862   7.1908   7.2081   7.2775   7.3145   7.3569
  7.5007   7.5760   7.6782   7.7297   7.7645   7.8920   8.3087   8.3702
 35.9658  36.1606  50.0287  50.2147  50.2555  50.2716
 --------------------------------------------------------------
 
 -----------------------------------------------------------------
                    Cartesian Multipole Moments
 -----------------------------------------------------------------
    Charge (ESU x 10^10)
                -0.0000
    Dipole Moment (Debye)
         X      -0.2063      Y      -0.4337      Z       0.3181
       Tot       0.5761
    Quadrupole Moments (Debye-Ang)
        XX     -32.6505     XY      -0.7854     YY     -32.9095
        XZ      -2.1800     YZ       0.2745     ZZ     -31.0205
    Octopole Moments (Debye-Ang^2)
       XXX     -31.9394    XXY     -13.0342    XYY     -11.6557
       YYY     -38.1204    XXZ     -94.3226    XYZ      -3.0873
       YYZ     -91.2110    XZZ     -20.4844    YZZ      -6.5392
       ZZZ    -271.9607
    Hexadecapole Moments (Debye-Ang^3)
      XXXX    -132.2054   XXXY     -70.6929   XXYY     -88.7171
      XYYY     -74.7741   YYYY    -394.7568   XXXZ     -85.7622
      XXYZ     -10.2455   XYYZ     -28.7735   YYYZ     -13.2687
      XXZZ    -318.4847   XYZZ     -34.9050   YYZZ    -348.3079
      XZZZ    -119.2008   YZZZ      15.5915   ZZZZ   -1711.5322
 -----------------------------------------------------------------
Archival summary:
1\1\centos77-c5\SP\ProcedureUnspecified\BasisUnspecified\42(3)\shihchen\MonJul1315:32:282020MonJul1315:32:282020\0\\#,ProcedureUnspecified,BasisUnspecified,\\0,3\N\O,1,1.17243\O,1,1.1761,2,132.069\O,1,1.59361,2,116.027,3,-179.35,0\N,4,1.54492,1,110.676,2,-177.187,0\O,5,1.17332,4,168.93,1,95.7149,0\\\@

 Total job time:  15.45s(wall), 82.90s(cpu) 
 Mon Jul 13 15:32:28 2020

        *************************************************************
        *                                                           *
        *  Thank you very much for using Q-Chem.  Have a nice day.  *
        *                                                           *
        *************************************************************


