                  Welcome to Q-Chem
     A Quantum Leap Into The Future Of Chemistry


 Q-Chem 5.3 (devel), Q-Chem, Inc., Pleasanton, CA (2020)

 Yihan Shao,  Zhengting Gan,  E. Epifanovsky,  A. T. B. Gilbert,  M. Wormit,  
 J. Kussmann,  A. W. Lange,  A. Behn,  Jia Deng,  Xintian Feng,  D. Ghosh,  
 M. Goldey,  P. R. Horn,  L. D. Jacobson,  I. Kaliman,  T. Kus,  A. Landau,  
 Jie Liu,  E. I. Proynov,  R. M. Richard,  R. P. Steele,  E. J. Sundstrom,  
 H. L. Woodcock III,  P. M. Zimmerman,  D. Zuev,  B. Alam,  B. Albrecht,  
 E. Alguire,  S. A. Baeppler,  D. Barton,  Z. Benda,  Y. A. Bernard,  
 E. J. Berquist,  K. B. Bravaya,  H. Burton,  K. Carter-Fenk,  D. Casanova,  
 Chun-Min Chang,  Yunqing Chen,  A. Chien,  K. D. Closser,  M. P. Coons,  
 S. Coriani,  S. Dasgupta,  A. L. Dempwolff,  M. Diedenhofen,  Hainam Do,  
 R. G. Edgar,  Po-Tung Fang,  S. Faraji,  S. Fatehi,  Qingguo Feng,  
 J. Fosso-Tande,  J. Gayvert,  Qinghui Ge,  A. Ghysels,  G. Gidofalvi,  
 J. Gomes,  J. Gonthier,  A. Gunina,  D. Hait,  M. W. D. Hanson-Heine,  
 P. H. P. Harbach,  A. W. Hauser,  M. F. Herbst,  J. E. Herr,  
 E. G. Hohenstein,  Z. C. Holden,  Kerwin Hui,  B. C. Huynh,  T.-C. Jagau,  
 Hyunjun Ji,  B. Kaduk,  K. Khistyaev,  Jaehoon Kim,  P. Klunzinger,  K. Koh,  
 D. Kosenkov,  L. Koulias,  T. Kowalczyk,  C. M. Krauter,  A. Kunitsa,  
 Ka Un Lao,  A. Laurent,  K. V. Lawler,  Joonho Lee,  D. Lefrancois,  
 S. Lehtola,  D. S. Levine,  Yi-Pei Li,  You-Sheng Lin,  Fenglai Liu,  
 Kuan-Yu Liu,  E. Livshits,  M. Loipersberger,  A. Luenser,  P. Manohar,  
 E. Mansoor,  S. F. Manzer,  Shan-Ping Mao,  Yuezhi Mao,  N. Mardirossian,  
 A. V. Marenich,  T. Markovich,  L. A. Martinez-Martinez,  S. A. Maurer,  
 N. J. Mayhall,  S. C. McKenzie,  J.-M. Mewes,  P. Morgante,  A. F. Morrison,  
 J. W. Mullinax,  K. Nanda,  T. S. Nguyen-Beck,  R. Olivares-Amaya,  
 K. J. Oosterbaan,  J. A. Parkhill,  S. K. Paul,  F. Pavosevic,  Zheng Pei,  
 T. M. Perrine,  F. Plasser,  P. Pokhilko,  S. Prager,  A. Prociuk,  
 E. Ramos,  B. Rana,  D. R. Rehn,  F. Rob,  M. Scheurer,  M. Schneider,  
 N. Sergueev,  S. M. Sharada,  S. Sharma,  D. W. Small,  T. Stauch,  
 C. J. Stein,  T. Stein,  Yu-Chuan Su,  S. P. Veccham,  Zhen Tao,  
 A. J. W. Thom,  A. Tkatchenko,  T. Tsuchimochi,  N. M. Tubman,  L. Vogt,  
 M. L. Vidal,  O. Vydrov,  M. A. Watson,  J. Wenzel,  M. de Wergifosse,  
 T. A. Wesolowski,  A. White,  J. Witte,  A. Yamada,  Jun Yang,  K. Yao,  
 S. Yeganeh,  S. R. Yost,  Zhi-Qiang You,  A. Zech,  Igor Ying Zhang,  
 Xing Zhang,  Yan Zhao,  Ying Zhu,  B. R. Brooks,  G. K. L. Chan,  
 C. J. Cramer,  M. S. Gordon,  W. J. Hehre,  A. Klamt,  M. W. Schmidt,  
 C. D. Sherrill,  D. G. Truhlar,  A. Aspuru-Guzik,  R. Baer,  A. T. Bell,  
 N. A. Besley,  Jeng-Da Chai,  A. E. DePrince, III,  R. A. DiStasio Jr.,  
 A. Dreuw,  B. D. Dunietz,  T. R. Furlani,  Chao-Ping Hsu,  Yousung Jung,  
 Jing Kong,  D. S. Lambrecht,  WanZhen Liang,  C. Ochsenfeld,  
 V. A. Rassolov,  L. V. Slipchenko,  J. E. Subotnik,  T. Van Voorhis,  
 J. M. Herbert,  A. I. Krylov,  P. M. W. Gill,  M. Head-Gordon

 Contributors to earlier versions of Q-Chem not listed above: 
 R. D. Adamson,  B. Austin,  J. Baker,  G. J. O. Beran,  K. Brandhorst,  
 S. T. Brown,  E. F. C. Byrd,  A. K. Chakraborty,  C.-L. Cheng,  
 Siu Hung Chien,  D. M. Chipman,  D. L. Crittenden,  H. Dachsel,  
 R. J. Doerksen,  A. D. Dutoi,  L. Fusti-Molnar,  W. A. Goddard III,  
 A. Golubeva-Zadorozhnaya,  S. R. Gwaltney,  G. Hawkins,  A. Heyden,  
 S. Hirata,  G. Kedziora,  F. J. Keil,  C. Kelley,  Jihan Kim,  R. A. King,  
 R. Z. Khaliullin,  P. P. Korambath,  W. Kurlancheek,  A. M. Lee,  M. S. Lee,  
 S. V. Levchenko,  Ching Yeh Lin,  D. Liotard,  R. C. Lochan,  I. Lotan,  
 P. E. Maslen,  N. Nair,  D. P. O'Neill,  D. Neuhauser,  E. Neuscamman,  
 C. M. Oana,  R. Olson,  B. Peters,  R. Peverati,  P. A. Pieniazek,  
 Y. M. Rhee,  J. Ritchie,  M. A. Rohrdanz,  E. Rosta,  N. J. Russ,  
 H. F. Schaefer III,  N. E. Schultz,  N. Shenvi,  A. C. Simmonett,  A. Sodt,  
 D. Stuck,  K. S. Thanthiriwatte,  V. Vanovschi,  Tao Wang,  A. Warshel,  
 C. F. Williams,  Q. Wu,  X. Xu,  W. Zhang

 Please cite Q-Chem as follows:
 Y. Shao et al., Mol. Phys. 113, 184-215 (2015)
 DOI: 10.1080/00268976.2014.952696

 Q-Chem 5.3.0 for Intel X86 EM64T Linux

 Parts of Q-Chem use Armadillo 9.800.1 (Horizon Scraper).
 http://arma.sourceforge.net/

 Q-Chem begins on Mon Jul  6 02:01:01 2020  

Host: centos77-c5
0

     Scratch files written to /tmp/26859.centos77-h1/qchem19336//
Processing $rem in /opt/qchem-5.3.0-intel2020u1//config/preferences:
Processing $rem in /home/victor/.qchemrc:

Checking the input file for inconsistencies... 	...done.

--------------------------------------------------------------
User input:
--------------------------------------------------------------
$molecule 
0 2
N         -0.41051        0.84137        0.00000
O          0.59885        0.20614       -0.00000
O         -1.57303        0.22802       -0.00000
$end

$rem
   JOBTYPE         freq
   EXCHANGE omegaB97X-D
   BASIS 6-311+G(2df,2pd)
   XC_GRID 000075000302
   SCF_ALGORITHM DIIS
   MAX_SCF_CYCLES 150
   SCF_CONVERGENCE 8
   SYM_IGNORE TRUE
   SYMMETRY FALSE
   WAVEFUNCTION_ANALYSIS FALSE
   UNRESTRICTED  TRUE
$end

--------------------------------------------------------------
 ----------------------------------------------------------------
             Standard Nuclear Orientation (Angstroms)
    I     Atom           X                Y                Z
 ----------------------------------------------------------------
    1      N      -0.4105100000     0.8413700000     0.0000000000
    2      O       0.5988500000     0.2061400000     0.0000000000
    3      O      -1.5730300000     0.2280200000     0.0000000000
 ----------------------------------------------------------------
 Nuclear Repulsion Energy =          62.98620480 hartrees
 There are       12 alpha and       11 beta electrons
 Requested basis set is 6-311+G(2df,2pd)
 There are 24 shells and 102 basis functions

 Total QAlloc Memory Limit   2000 MB
 Mega-Array Size       188 MB
 MEM_STATIC part       192 MB

                       Distance Matrix (Angstroms)
             N (  1)   O (  2)
   O (  2)  1.192613
   O (  3)  1.314401  2.171990
 
 A cutoff of  1.0D-11 yielded    297 shell pairs
 There are      5439 function pairs (      7191 Cartesian)
 Smallest overlap matrix eigenvalue = 1.84E-03
 Guess from superposition of atomic densities
 Warning:  Energy on first SCF cycle will be non-variational
 SAD guess density has 23.000000 electrons

 -----------------------------------------------------------------------
  General SCF calculation program by
  Eric Jon Sundstrom, Paul Horn, Yuezhi Mao, Dmitri Zuev, Alec White,
  David Stuck, Shaama M.S., Shane Yost, Joonho Lee, David Small,
  Daniel Levine, Susi Lehtola, Hugh Burton, Evgeny Epifanovsky,
  Bang C. Huynh
 -----------------------------------------------------------------------
 Exchange:     0.2220 Hartree-Fock + 1.0000 wB97X-D + LR-HF
 Correlation:  1.0000 wB97X-D
 Using Euler-Maclaurin-Lebedev (75,302) quadrature formula
 Dispersion:   Grimme D
 using 16 threads for integral computing
 -------------------------------------------------------
 OpenMP Integral computing Module                
 Release: version 1.0, May 2013, Q-Chem Inc. Pittsburgh 
 -------------------------------------------------------
 using 16 threads for integral computing
 -------------------------------------------------------
 OpenMP Integral computing Module                
 Release: version 1.0, May 2013, Q-Chem Inc. Pittsburgh 
 -------------------------------------------------------
 A unrestricted SCF calculation will be
 performed using DIIS
 SCF converges when DIIS error is below 1.0e-08
 ---------------------------------------
  Cycle       Energy         DIIS error
 ---------------------------------------
    1    -205.3396803370      2.37e-02  
    2    -204.9019536003      6.13e-03  
    3    -204.6271926950      1.10e-02  
    4    -205.0402824630      1.95e-03  
    5    -205.0509896270      9.66e-04  
    6    -205.0544116240      1.25e-04  
    7    -205.0545377849      4.94e-05  
    8    -205.0545967636      2.97e-05  
    9    -205.0546427410      2.60e-05  
   10    -205.0546950310      2.12e-05  
   11    -205.0547454404      9.76e-06  
   12    -205.0547608079      3.41e-06  
   13    -205.0547617879      1.85e-06  
   14    -205.0547619881      1.04e-06  
   15    -205.0547620614      4.29e-07  
   16    -205.0547620756      1.89e-07  
   17    -205.0547620778      5.98e-08  
   18    -205.0547620780      1.76e-08  
   19    -205.0547620780      5.26e-09  Convergence criterion met
 ---------------------------------------
 SCF time:   CPU 39.29s  wall 3.00s 
<S^2> =          0.757425423
 SCF   energy in the final basis set =     -205.0547620780
 Total energy in the final basis set =     -205.0547620780
 No wavefunction analysis requested
 Calculating MO derivatives via CPSCF
    1     0    12    0.0618095  
    2     0    12    0.0208795  
    3     0    12    0.0181639  
    4     0    12    0.0187496  
    5     0    12    0.0055385  
    6     0    12    0.0017331  
    7     0    12    0.0002596  
    8     4     8    0.0000388  
    9    10     2    0.0000048  
   10    12     0    0.0000006  Converged
 Time for AOints: 2.7 s (CPU) 0.2 s (wall)
 ------------------------------------------------------------------------------
                     AOints        : Timing summary (seconds)
 ------------------------------------------------------------------------------
     job step          cpu (% of tot)      sys (% of tot)     wall (% of tot)
 ------------------------------------------------------------------------------
  AOints            0.2693E+01 ( 2.4)   0.1000E-05 ( 0.4)   0.1684E+00 ( 0.8)
 ------------------------------------------------------------------------------
   Grand Totals     0.1128E+03          0.2580E-03          0.2182E+02
 ------------------------------------------------------------------------------
 Polarizability Matrix (a.u.)
            1           2           3
    1 -34.1286931  -1.4462347   0.0000000
    2  -1.4462347 -14.0562813   0.0000000
    3   0.0000000   0.0000000 -10.7097645
 Calculating analytic Hessian of the SCF energy
atom: 0 element: 7
atom: 1 element: 8
atom: 2 element: 8
 
 Direct stationary perturbation theory relativistic correction:
 
 rels  =       0.078286894319
 relv  =      -0.311130879878
 rel2e =       0.000000000000
 E_rel =      -0.232843985559
 
 Hessian of the SCF Energy
            1           2           3           4           5           6
    1   0.4583392  -0.2620123  -0.0000000  -0.4055481   0.2449531   0.0000000
    2  -0.2620123   0.4056134   0.0000000   0.2661394  -0.2792695  -0.0000000
    3  -0.0000000   0.0000000   0.0999363   0.0000000  -0.0000000  -0.0392338
    4  -0.4055481   0.2661394   0.0000000   0.6042944  -0.2516181  -0.0000000
    5   0.2449531  -0.2792695  -0.0000000  -0.2516181   0.2227406   0.0000000
    6   0.0000000  -0.0000000  -0.0392338  -0.0000000   0.0000000   0.0227725
    7  -0.0527911  -0.0041271   0.0000000  -0.1987463   0.0066649  -0.0000000
    8   0.0170592  -0.1263440   0.0000000  -0.0145213   0.0565289  -0.0000000
    9   0.0000000   0.0000000  -0.0607025  -0.0000000  -0.0000000   0.0164613
            7           8           9
    1  -0.0527911   0.0170592   0.0000000
    2  -0.0041271  -0.1263440   0.0000000
    3   0.0000000   0.0000000  -0.0607025
    4  -0.1987463  -0.0145213  -0.0000000
    5   0.0066649   0.0565289  -0.0000000
    6  -0.0000000  -0.0000000   0.0164613
    7   0.2515374  -0.0025379  -0.0000000
    8  -0.0025379   0.0698151  -0.0000000
    9  -0.0000000  -0.0000000   0.0442412
 **********************************************************************
 **                                                                  **
 **                       VIBRATIONAL ANALYSIS                       **
 **                       --------------------                       **
 **                                                                  **
 **        VIBRATIONAL FREQUENCIES (CM**-1) AND NORMAL MODES         **
 **     FORCE CONSTANTS (mDYN/ANGSTROM) AND REDUCED MASSES (AMU)     **
 **                  INFRARED INTENSITIES (KM/MOL)                   **
 **                                                                  **
 **********************************************************************
 

 Mode:                 1                      2                      3
 Frequency:       672.93                 824.83                1530.27
 Force Cnst:      3.9108                 6.2518                20.5869
 Red. Mass:      14.6580                15.5964                14.9213
 IR Active:          YES                    YES                    YES
 IR Intens:       50.249                 23.358                229.193
 Raman Active:       YES                    YES                    YES
               X      Y      Z        X      Y      Z        X      Y      Z
 N          0.579  0.580 -0.000   -0.167  0.415  0.000   -0.553  0.483 -0.000
 O         -0.113 -0.127 -0.000   -0.526 -0.230 -0.000    0.562 -0.369  0.000
 O         -0.394 -0.380  0.000    0.672 -0.133 -0.000   -0.078 -0.054 -0.000
 TransDip   0.225 -0.032  0.000   -0.138  0.070 -0.000   -0.484  0.027  0.000

 STANDARD THERMODYNAMIC QUANTITIES AT   298.15 K  AND     1.00 ATM

   This Molecule has  0 Imaginary Frequencies
   Zero point vibrational energy:        4.329 kcal/mol

   Atom    1 Element N  Has Mass   14.00307
   Atom    2 Element O  Has Mass   15.99491
   Atom    3 Element O  Has Mass   15.99491
   Molecular Mass:    45.992890 amu
   Principal axes and moments of inertia in amu*Bohr^2:
                             1           2           3
    Eigenvalues --       13.56838   134.92137   148.48975
          X               1.00000    -0.00252     0.00000
          Y               0.00252     1.00000     0.00000
          Z               0.00000     0.00000     1.00000
   Rotational Symmetry Number is   1
   The Molecule is an Asymmetric Top
   Translational Enthalpy:        0.889 kcal/mol
   Rotational Enthalpy:           0.889 kcal/mol
   Vibrational Enthalpy:          4.454 kcal/mol
   gas constant (RT):             0.592 kcal/mol
   Translational Entropy:        37.403  cal/mol.K
   Rotational Entropy:           20.236  cal/mol.K
   Vibrational Entropy:           0.538  cal/mol.K

   Total Enthalpy:                6.824 kcal/mol
   Total Entropy:                58.177  cal/mol.K
Archival summary:
1\1\centos77-c5\FREQ\ProcedureUnspecified\BasisUnspecified\21(2)\victor\MonJul602:01:362020MonJul602:01:362020\0\\#,FREQ,ProcedureUnspecified,BasisUnspecified,\\0,2\N\O,1,1.19261\O,1,1.3144,2,120\\\@

 Total job time:  35.55s(wall), 204.66s(cpu) 
 Mon Jul  6 02:01:36 2020

        *************************************************************
        *                                                           *
        *  Thank you very much for using Q-Chem.  Have a nice day.  *
        *                                                           *
        *************************************************************


