                  Welcome to Q-Chem
     A Quantum Leap Into The Future Of Chemistry


 Q-Chem 5.3 (devel), Q-Chem, Inc., Pleasanton, CA (2020)

 Yihan Shao,  Zhengting Gan,  E. Epifanovsky,  A. T. B. Gilbert,  M. Wormit,  
 J. Kussmann,  A. W. Lange,  A. Behn,  Jia Deng,  Xintian Feng,  D. Ghosh,  
 M. Goldey,  P. R. Horn,  L. D. Jacobson,  I. Kaliman,  T. Kus,  A. Landau,  
 Jie Liu,  E. I. Proynov,  R. M. Richard,  R. P. Steele,  E. J. Sundstrom,  
 H. L. Woodcock III,  P. M. Zimmerman,  D. Zuev,  B. Alam,  B. Albrecht,  
 E. Alguire,  S. A. Baeppler,  D. Barton,  Z. Benda,  Y. A. Bernard,  
 E. J. Berquist,  K. B. Bravaya,  H. Burton,  K. Carter-Fenk,  D. Casanova,  
 Chun-Min Chang,  Yunqing Chen,  A. Chien,  K. D. Closser,  M. P. Coons,  
 S. Coriani,  S. Dasgupta,  A. L. Dempwolff,  M. Diedenhofen,  Hainam Do,  
 R. G. Edgar,  Po-Tung Fang,  S. Faraji,  S. Fatehi,  Qingguo Feng,  
 J. Fosso-Tande,  J. Gayvert,  Qinghui Ge,  A. Ghysels,  G. Gidofalvi,  
 J. Gomes,  J. Gonthier,  A. Gunina,  D. Hait,  M. W. D. Hanson-Heine,  
 P. H. P. Harbach,  A. W. Hauser,  M. F. Herbst,  J. E. Herr,  
 E. G. Hohenstein,  Z. C. Holden,  Kerwin Hui,  B. C. Huynh,  T.-C. Jagau,  
 Hyunjun Ji,  B. Kaduk,  K. Khistyaev,  Jaehoon Kim,  P. Klunzinger,  K. Koh,  
 D. Kosenkov,  L. Koulias,  T. Kowalczyk,  C. M. Krauter,  A. Kunitsa,  
 Ka Un Lao,  A. Laurent,  K. V. Lawler,  Joonho Lee,  D. Lefrancois,  
 S. Lehtola,  D. S. Levine,  Yi-Pei Li,  You-Sheng Lin,  Fenglai Liu,  
 Kuan-Yu Liu,  E. Livshits,  M. Loipersberger,  A. Luenser,  P. Manohar,  
 E. Mansoor,  S. F. Manzer,  Shan-Ping Mao,  Yuezhi Mao,  N. Mardirossian,  
 A. V. Marenich,  T. Markovich,  L. A. Martinez-Martinez,  S. A. Maurer,  
 N. J. Mayhall,  S. C. McKenzie,  J.-M. Mewes,  P. Morgante,  A. F. Morrison,  
 J. W. Mullinax,  K. Nanda,  T. S. Nguyen-Beck,  R. Olivares-Amaya,  
 K. J. Oosterbaan,  J. A. Parkhill,  S. K. Paul,  F. Pavosevic,  Zheng Pei,  
 T. M. Perrine,  F. Plasser,  P. Pokhilko,  S. Prager,  A. Prociuk,  
 E. Ramos,  B. Rana,  D. R. Rehn,  F. Rob,  M. Scheurer,  M. Schneider,  
 N. Sergueev,  S. M. Sharada,  S. Sharma,  D. W. Small,  T. Stauch,  
 C. J. Stein,  T. Stein,  Yu-Chuan Su,  S. P. Veccham,  Zhen Tao,  
 A. J. W. Thom,  A. Tkatchenko,  T. Tsuchimochi,  N. M. Tubman,  L. Vogt,  
 M. L. Vidal,  O. Vydrov,  M. A. Watson,  J. Wenzel,  M. de Wergifosse,  
 T. A. Wesolowski,  A. White,  J. Witte,  A. Yamada,  Jun Yang,  K. Yao,  
 S. Yeganeh,  S. R. Yost,  Zhi-Qiang You,  A. Zech,  Igor Ying Zhang,  
 Xing Zhang,  Yan Zhao,  Ying Zhu,  B. R. Brooks,  G. K. L. Chan,  
 C. J. Cramer,  M. S. Gordon,  W. J. Hehre,  A. Klamt,  M. W. Schmidt,  
 C. D. Sherrill,  D. G. Truhlar,  A. Aspuru-Guzik,  R. Baer,  A. T. Bell,  
 N. A. Besley,  Jeng-Da Chai,  A. E. DePrince, III,  R. A. DiStasio Jr.,  
 A. Dreuw,  B. D. Dunietz,  T. R. Furlani,  Chao-Ping Hsu,  Yousung Jung,  
 Jing Kong,  D. S. Lambrecht,  WanZhen Liang,  C. Ochsenfeld,  
 V. A. Rassolov,  L. V. Slipchenko,  J. E. Subotnik,  T. Van Voorhis,  
 J. M. Herbert,  A. I. Krylov,  P. M. W. Gill,  M. Head-Gordon

 Contributors to earlier versions of Q-Chem not listed above: 
 R. D. Adamson,  B. Austin,  J. Baker,  G. J. O. Beran,  K. Brandhorst,  
 S. T. Brown,  E. F. C. Byrd,  A. K. Chakraborty,  C.-L. Cheng,  
 Siu Hung Chien,  D. M. Chipman,  D. L. Crittenden,  H. Dachsel,  
 R. J. Doerksen,  A. D. Dutoi,  L. Fusti-Molnar,  W. A. Goddard III,  
 A. Golubeva-Zadorozhnaya,  S. R. Gwaltney,  G. Hawkins,  A. Heyden,  
 S. Hirata,  G. Kedziora,  F. J. Keil,  C. Kelley,  Jihan Kim,  R. A. King,  
 R. Z. Khaliullin,  P. P. Korambath,  W. Kurlancheek,  A. M. Lee,  M. S. Lee,  
 S. V. Levchenko,  Ching Yeh Lin,  D. Liotard,  R. C. Lochan,  I. Lotan,  
 P. E. Maslen,  N. Nair,  D. P. O'Neill,  D. Neuhauser,  E. Neuscamman,  
 C. M. Oana,  R. Olson,  B. Peters,  R. Peverati,  P. A. Pieniazek,  
 Y. M. Rhee,  J. Ritchie,  M. A. Rohrdanz,  E. Rosta,  N. J. Russ,  
 H. F. Schaefer III,  N. E. Schultz,  N. Shenvi,  A. C. Simmonett,  A. Sodt,  
 D. Stuck,  K. S. Thanthiriwatte,  V. Vanovschi,  Tao Wang,  A. Warshel,  
 C. F. Williams,  Q. Wu,  X. Xu,  W. Zhang

 Please cite Q-Chem as follows:
 Y. Shao et al., Mol. Phys. 113, 184-215 (2015)
 DOI: 10.1080/00268976.2014.952696

 Q-Chem 5.3.0 for Intel X86 EM64T Linux

 Parts of Q-Chem use Armadillo 9.800.1 (Horizon Scraper).
 http://arma.sourceforge.net/

 Q-Chem begins on Mon Jul  6 01:59:38 2020  

Host: centos77-c2
0

     Scratch files written to /tmp/26858.centos77-h1/qchem10646//
Processing $rem in /opt/qchem-5.3.0-intel2020u1//config/preferences:
Processing $rem in /home/victor/.qchemrc:

Checking the input file for inconsistencies... 	...done.

--------------------------------------------------------------
User input:
--------------------------------------------------------------
$molecule 
0 2
N        -0.0002461962   -0.0514068086    0.0000000000
O         0.0001839201   -1.2451142705    0.0000000000
O        -1.0263996066    0.6463984638    0.0000000000
O         1.0264621645    0.6461945373    0.0000000000
$end

$rem
   JOBTYPE         freq
   EXCHANGE omegaB97X-D
   BASIS 6-311+G(2df,2pd)
   XC_GRID 000075000302
   SCF_ALGORITHM DIIS
   MAX_SCF_CYCLES 150
   SCF_CONVERGENCE 8
   SYM_IGNORE TRUE
   SYMMETRY FALSE
   WAVEFUNCTION_ANALYSIS FALSE
   UNRESTRICTED  TRUE
$end

--------------------------------------------------------------
 ----------------------------------------------------------------
             Standard Nuclear Orientation (Angstroms)
    I     Atom           X                Y                Z
 ----------------------------------------------------------------
    1      N      -0.0002461962    -0.0514068086     0.0000000000
    2      O       0.0001839201    -1.2451142705     0.0000000000
    3      O      -1.0263996066     0.6463984638     0.0000000000
    4      O       1.0264621645     0.6461945373     0.0000000000
 ----------------------------------------------------------------
 Nuclear Repulsion Energy =         120.55220376 hartrees
 There are       16 alpha and       15 beta electrons
 Requested basis set is 6-311+G(2df,2pd)
 There are 32 shells and 136 basis functions

 Total QAlloc Memory Limit   2000 MB
 Mega-Array Size       188 MB
 MEM_STATIC part       192 MB

                       Distance Matrix (Angstroms)
             N (  1)   O (  2)   O (  3)
   O (  2)  1.193708
   O (  3)  1.240936  2.152137
   O (  4)  1.241281  2.151812  2.052862
 
 A cutoff of  1.0D-11 yielded    521 shell pairs
 There are      9557 function pairs (     12623 Cartesian)
 Smallest overlap matrix eigenvalue = 1.07E-03
 Guess from superposition of atomic densities
 Warning:  Energy on first SCF cycle will be non-variational
 SAD guess density has 31.000000 electrons

 -----------------------------------------------------------------------
  General SCF calculation program by
  Eric Jon Sundstrom, Paul Horn, Yuezhi Mao, Dmitri Zuev, Alec White,
  David Stuck, Shaama M.S., Shane Yost, Joonho Lee, David Small,
  Daniel Levine, Susi Lehtola, Hugh Burton, Evgeny Epifanovsky,
  Bang C. Huynh
 -----------------------------------------------------------------------
 Exchange:     0.2220 Hartree-Fock + 1.0000 wB97X-D + LR-HF
 Correlation:  1.0000 wB97X-D
 Using Euler-Maclaurin-Lebedev (75,302) quadrature formula
 Dispersion:   Grimme D
 using 16 threads for integral computing
 -------------------------------------------------------
 OpenMP Integral computing Module                
 Release: version 1.0, May 2013, Q-Chem Inc. Pittsburgh 
 -------------------------------------------------------
 using 16 threads for integral computing
 -------------------------------------------------------
 OpenMP Integral computing Module                
 Release: version 1.0, May 2013, Q-Chem Inc. Pittsburgh 
 -------------------------------------------------------
 A unrestricted SCF calculation will be
 performed using DIIS
 SCF converges when DIIS error is below 1.0e-08
 ---------------------------------------
  Cycle       Energy         DIIS error
 ---------------------------------------
    1    -281.1063547427      2.39e-02  
    2    -280.0265496572      5.50e-03  
    3    -279.9123153892      7.56e-03  
    4    -280.2234257393      5.08e-04  
    5    -280.2233920690      5.30e-04  
    6    -280.2253069765      1.00e-04  
    7    -280.2254678302      4.01e-05  
    8    -280.2255558433      2.89e-05  
    9    -280.2256269963      1.59e-05  
   10    -280.2256586741      8.57e-06  
   11    -280.2256602504      4.91e-06  
   12    -280.2256609399      1.05e-06  
   13    -280.2256609881      3.18e-07  
   14    -280.2256609911      1.15e-07  
   15    -280.2256609921      5.64e-08  
   16    -280.2256609924      2.57e-08  
   17    -280.2256609924      6.50e-09  Convergence criterion met
 ---------------------------------------
 SCF time:   CPU 55.47s  wall 4.00s 
<S^2> =          0.757437290
 SCF   energy in the final basis set =     -280.2256609924
 Total energy in the final basis set =     -280.2256609924
 No wavefunction analysis requested
 Calculating MO derivatives via CPSCF
    1     0    15    0.0478078  
    2     0    15    0.0211919  
    3     0    15    0.0186091  
    4     0    15    0.0084379  
    5     0    15    0.0011782  
    6     0    15    0.0003098  
    7     1    14    0.0000628  
    8     7     8    0.0000118  
    9    14     1    0.0000019  
   10    15     0    0.0000002  Converged
 Time for AOints: 8.5 s (CPU) 0.5 s (wall)
 ------------------------------------------------------------------------------
                     AOints        : Timing summary (seconds)
 ------------------------------------------------------------------------------
     job step          cpu (% of tot)      sys (% of tot)     wall (% of tot)
 ------------------------------------------------------------------------------
  AOints            0.8528E+01 ( 3.4)   0.3000E-05 ( 0.8)   0.5332E+00 ( 1.0)
 ------------------------------------------------------------------------------
   Grand Totals     0.2542E+03          0.3670E-03          0.5559E+02
 ------------------------------------------------------------------------------
 Polarizability Matrix (a.u.)
            1           2           3
    1 -37.1160225  -0.0049922  -0.0000000
    2  -0.0049922 -29.1677068  -0.0000000
    3  -0.0000000  -0.0000000 -12.6138608
 Calculating analytic Hessian of the SCF energy
atom: 0 element: 7
atom: 1 element: 8
atom: 2 element: 8
atom: 3 element: 8
 
 Direct stationary perturbation theory relativistic correction:
 
 rels  =       0.108886830211
 relv  =      -0.448416414353
 rel2e =       0.000000000000
 E_rel =      -0.339529584141
 
 Hessian of the SCF Energy
            1           2           3           4           5           6
    1   0.1658418  -0.0001398   0.0000000   0.0288839   0.0000791  -0.0000000
    2  -0.0001398   0.6937804  -0.0000000  -0.0001983  -0.5658697   0.0000000
    3   0.0000000  -0.0000000   0.2750196  -0.0000000   0.0000000  -0.1009686
    4   0.0288839  -0.0001983  -0.0000000   0.0746167  -0.0000988   0.0000000
    5   0.0000791  -0.5658697   0.0000000  -0.0000988   0.7686483  -0.0000000
    6  -0.0000000   0.0000000  -0.1009686   0.0000000  -0.0000000   0.0372554
    7  -0.0982353   0.1842528   0.0000000  -0.0516108   0.0522684   0.0000000
    8   0.0823807  -0.0643243  -0.0000000   0.0787814  -0.1013363   0.0000000
    9   0.0000000  -0.0000000  -0.0870565  -0.0000000   0.0000000   0.0318634
   10  -0.0964905  -0.1839146  -0.0000000  -0.0518899  -0.0522487  -0.0000000
   11  -0.0823199  -0.0635865   0.0000000  -0.0784844  -0.1014423   0.0000000
   12  -0.0000000   0.0000000  -0.0869945   0.0000000   0.0000000   0.0318499
            7           8           9          10          11          12
    1  -0.0982353   0.0823807   0.0000000  -0.0964905  -0.0823199  -0.0000000
    2   0.1842528  -0.0643243  -0.0000000  -0.1839146  -0.0635865   0.0000000
    3   0.0000000  -0.0000000  -0.0870565  -0.0000000   0.0000000  -0.0869945
    4  -0.0516108   0.0787814  -0.0000000  -0.0518899  -0.0784844   0.0000000
    5   0.0522684  -0.1013363   0.0000000  -0.0522487  -0.1014423   0.0000000
    6   0.0000000   0.0000000   0.0318634  -0.0000000   0.0000000   0.0318499
    7   0.3586650  -0.1989651  -0.0000000  -0.2088189  -0.0375560   0.0000000
    8  -0.1989651   0.1838609  -0.0000000   0.0378030  -0.0182003   0.0000000
    9  -0.0000000  -0.0000000   0.0279535  -0.0000000   0.0000000   0.0272396
   10  -0.2088189   0.0378030  -0.0000000   0.3571993   0.1983603   0.0000000
   11  -0.0375560  -0.0182003   0.0000000   0.1983603   0.1832290  -0.0000000
   12   0.0000000   0.0000000   0.0272396   0.0000000  -0.0000000   0.0279051
 **********************************************************************
 **                                                                  **
 **                       VIBRATIONAL ANALYSIS                       **
 **                       --------------------                       **
 **                                                                  **
 **        VIBRATIONAL FREQUENCIES (CM**-1) AND NORMAL MODES         **
 **     FORCE CONSTANTS (mDYN/ANGSTROM) AND REDUCED MASSES (AMU)     **
 **                  INFRARED INTENSITIES (KM/MOL)                   **
 **                                                                  **
 **********************************************************************
 

 Mode:                 1                      2                      3
 Frequency:       374.39                 422.94                 819.27
 Force Cnst:      1.2822                 1.5722                 5.6987
 Red. Mass:      15.5250                14.9177                14.4102
 IR Active:          YES                    YES                    YES
 IR Intens:        0.458                 68.042                 13.363
 Raman Active:       YES                    YES                    YES
               X      Y      Z        X      Y      Z        X      Y      Z
 N         -0.026  0.485  0.000    0.735  0.016 -0.000    0.000 -0.000  0.892
 O          0.019  0.350 -0.000   -0.543  0.012  0.000   -0.000 -0.000 -0.288
 O         -0.411 -0.378 -0.000   -0.064 -0.295  0.000    0.000  0.000 -0.247
 O          0.415 -0.397 -0.000   -0.037  0.268  0.000   -0.000  0.000 -0.246
 TransDip   0.010  0.019  0.000   -0.264  0.000 -0.000   -0.000  0.000  0.117

 Mode:                 4                      5                      6
 Frequency:       914.40                1146.39                1527.79
 Force Cnst:      7.5927                12.3308                20.4527
 Red. Mass:      15.4127                15.9249                14.8722
 IR Active:          YES                    YES                    YES
 IR Intens:       41.536                  5.243                167.208
 Raman Active:       YES                    YES                    YES
               X      Y      Z        X      Y      Z        X      Y      Z
 N          0.541  0.002 -0.000   -0.003  0.187  0.000   -0.000  0.751 -0.000
 O          0.278  0.002  0.000   -0.001  0.425 -0.000   -0.000 -0.635  0.000
 O         -0.374  0.416  0.000    0.554 -0.296 -0.000    0.127 -0.011  0.000
 O         -0.378 -0.419  0.000   -0.551 -0.293 -0.000   -0.127 -0.011  0.000
 TransDip  -0.206 -0.000 -0.000    0.000  0.073  0.000   -0.000  0.414 -0.000

 STANDARD THERMODYNAMIC QUANTITIES AT   298.15 K  AND     1.00 ATM

   This Molecule has  0 Imaginary Frequencies
   Zero point vibrational energy:        7.441 kcal/mol

   Atom    1 Element N  Has Mass   14.00307
   Atom    2 Element O  Has Mass   15.99491
   Atom    3 Element O  Has Mass   15.99491
   Atom    4 Element O  Has Mass   15.99491
   Molecular Mass:    61.987800 amu
   Principal axes and moments of inertia in amu*Bohr^2:
                             1           2           3
    Eigenvalues --      120.35631   136.40101   256.75732
          X              -0.00138     1.00000     0.00000
          Y               1.00000     0.00138     0.00000
          Z               0.00000     0.00000     1.00000
   Rotational Symmetry Number is   1
   The Molecule is an Asymmetric Top
   Translational Enthalpy:        0.889 kcal/mol
   Rotational Enthalpy:           0.889 kcal/mol
   Vibrational Enthalpy:          7.926 kcal/mol
   gas constant (RT):             0.592 kcal/mol
   Translational Entropy:        38.292  cal/mol.K
   Rotational Entropy:           22.959  cal/mol.K
   Vibrational Entropy:           2.330  cal/mol.K

   Total Enthalpy:               10.296 kcal/mol
   Total Entropy:                63.581  cal/mol.K
Archival summary:
1\1\centos77-c2\FREQ\ProcedureUnspecified\BasisUnspecified\31(2)\victor\MonJul602:01:212020MonJul602:01:212020\0\\#,FREQ,ProcedureUnspecified,BasisUnspecified,\\0,2\N\O,1,1.19371\O,1,1.24094,2,124.237\O,1,1.24128,2,124.174,3,-180,0\\\@

 Total job time:  102.33s(wall), 453.72s(cpu) 
 Mon Jul  6 02:01:21 2020

        *************************************************************
        *                                                           *
        *  Thank you very much for using Q-Chem.  Have a nice day.  *
        *                                                           *
        *************************************************************


