                  Welcome to Q-Chem
     A Quantum Leap Into The Future Of Chemistry


 Q-Chem 5.3 (devel), Q-Chem, Inc., Pleasanton, CA (2020)

 Yihan Shao,  Zhengting Gan,  E. Epifanovsky,  A. T. B. Gilbert,  M. Wormit,  
 J. Kussmann,  A. W. Lange,  A. Behn,  Jia Deng,  Xintian Feng,  D. Ghosh,  
 M. Goldey,  P. R. Horn,  L. D. Jacobson,  I. Kaliman,  T. Kus,  A. Landau,  
 Jie Liu,  E. I. Proynov,  R. M. Richard,  R. P. Steele,  E. J. Sundstrom,  
 H. L. Woodcock III,  P. M. Zimmerman,  D. Zuev,  B. Alam,  B. Albrecht,  
 E. Alguire,  S. A. Baeppler,  D. Barton,  Z. Benda,  Y. A. Bernard,  
 E. J. Berquist,  K. B. Bravaya,  H. Burton,  K. Carter-Fenk,  D. Casanova,  
 Chun-Min Chang,  Yunqing Chen,  A. Chien,  K. D. Closser,  M. P. Coons,  
 S. Coriani,  S. Dasgupta,  A. L. Dempwolff,  M. Diedenhofen,  Hainam Do,  
 R. G. Edgar,  Po-Tung Fang,  S. Faraji,  S. Fatehi,  Qingguo Feng,  
 J. Fosso-Tande,  J. Gayvert,  Qinghui Ge,  A. Ghysels,  G. Gidofalvi,  
 J. Gomes,  J. Gonthier,  A. Gunina,  D. Hait,  M. W. D. Hanson-Heine,  
 P. H. P. Harbach,  A. W. Hauser,  M. F. Herbst,  J. E. Herr,  
 E. G. Hohenstein,  Z. C. Holden,  Kerwin Hui,  B. C. Huynh,  T.-C. Jagau,  
 Hyunjun Ji,  B. Kaduk,  K. Khistyaev,  Jaehoon Kim,  P. Klunzinger,  K. Koh,  
 D. Kosenkov,  L. Koulias,  T. Kowalczyk,  C. M. Krauter,  A. Kunitsa,  
 Ka Un Lao,  A. Laurent,  K. V. Lawler,  Joonho Lee,  D. Lefrancois,  
 S. Lehtola,  D. S. Levine,  Yi-Pei Li,  You-Sheng Lin,  Fenglai Liu,  
 Kuan-Yu Liu,  E. Livshits,  M. Loipersberger,  A. Luenser,  P. Manohar,  
 E. Mansoor,  S. F. Manzer,  Shan-Ping Mao,  Yuezhi Mao,  N. Mardirossian,  
 A. V. Marenich,  T. Markovich,  L. A. Martinez-Martinez,  S. A. Maurer,  
 N. J. Mayhall,  S. C. McKenzie,  J.-M. Mewes,  P. Morgante,  A. F. Morrison,  
 J. W. Mullinax,  K. Nanda,  T. S. Nguyen-Beck,  R. Olivares-Amaya,  
 K. J. Oosterbaan,  J. A. Parkhill,  S. K. Paul,  F. Pavosevic,  Zheng Pei,  
 T. M. Perrine,  F. Plasser,  P. Pokhilko,  S. Prager,  A. Prociuk,  
 E. Ramos,  B. Rana,  D. R. Rehn,  F. Rob,  M. Scheurer,  M. Schneider,  
 N. Sergueev,  S. M. Sharada,  S. Sharma,  D. W. Small,  T. Stauch,  
 C. J. Stein,  T. Stein,  Yu-Chuan Su,  S. P. Veccham,  Zhen Tao,  
 A. J. W. Thom,  A. Tkatchenko,  T. Tsuchimochi,  N. M. Tubman,  L. Vogt,  
 M. L. Vidal,  O. Vydrov,  M. A. Watson,  J. Wenzel,  M. de Wergifosse,  
 T. A. Wesolowski,  A. White,  J. Witte,  A. Yamada,  Jun Yang,  K. Yao,  
 S. Yeganeh,  S. R. Yost,  Zhi-Qiang You,  A. Zech,  Igor Ying Zhang,  
 Xing Zhang,  Yan Zhao,  Ying Zhu,  B. R. Brooks,  G. K. L. Chan,  
 C. J. Cramer,  M. S. Gordon,  W. J. Hehre,  A. Klamt,  M. W. Schmidt,  
 C. D. Sherrill,  D. G. Truhlar,  A. Aspuru-Guzik,  R. Baer,  A. T. Bell,  
 N. A. Besley,  Jeng-Da Chai,  A. E. DePrince, III,  R. A. DiStasio Jr.,  
 A. Dreuw,  B. D. Dunietz,  T. R. Furlani,  Chao-Ping Hsu,  Yousung Jung,  
 Jing Kong,  D. S. Lambrecht,  WanZhen Liang,  C. Ochsenfeld,  
 V. A. Rassolov,  L. V. Slipchenko,  J. E. Subotnik,  T. Van Voorhis,  
 J. M. Herbert,  A. I. Krylov,  P. M. W. Gill,  M. Head-Gordon

 Contributors to earlier versions of Q-Chem not listed above: 
 R. D. Adamson,  B. Austin,  J. Baker,  G. J. O. Beran,  K. Brandhorst,  
 S. T. Brown,  E. F. C. Byrd,  A. K. Chakraborty,  C.-L. Cheng,  
 Siu Hung Chien,  D. M. Chipman,  D. L. Crittenden,  H. Dachsel,  
 R. J. Doerksen,  A. D. Dutoi,  L. Fusti-Molnar,  W. A. Goddard III,  
 A. Golubeva-Zadorozhnaya,  S. R. Gwaltney,  G. Hawkins,  A. Heyden,  
 S. Hirata,  G. Kedziora,  F. J. Keil,  C. Kelley,  Jihan Kim,  R. A. King,  
 R. Z. Khaliullin,  P. P. Korambath,  W. Kurlancheek,  A. M. Lee,  M. S. Lee,  
 S. V. Levchenko,  Ching Yeh Lin,  D. Liotard,  R. C. Lochan,  I. Lotan,  
 P. E. Maslen,  N. Nair,  D. P. O'Neill,  D. Neuhauser,  E. Neuscamman,  
 C. M. Oana,  R. Olson,  B. Peters,  R. Peverati,  P. A. Pieniazek,  
 Y. M. Rhee,  J. Ritchie,  M. A. Rohrdanz,  E. Rosta,  N. J. Russ,  
 H. F. Schaefer III,  N. E. Schultz,  N. Shenvi,  A. C. Simmonett,  A. Sodt,  
 D. Stuck,  K. S. Thanthiriwatte,  V. Vanovschi,  Tao Wang,  A. Warshel,  
 C. F. Williams,  Q. Wu,  X. Xu,  W. Zhang

 Please cite Q-Chem as follows:
 Y. Shao et al., Mol. Phys. 113, 184-215 (2015)
 DOI: 10.1080/00268976.2014.952696

 Q-Chem 5.3.0 for Intel X86 EM64T Linux

 Parts of Q-Chem use Armadillo 9.800.1 (Horizon Scraper).
 http://arma.sourceforge.net/

 Q-Chem begins on Mon Jul  6 01:49:09 2020  

Host: centos77-c1
0

     Scratch files written to /tmp/26855.centos77-h1/qchem34697//
Processing $rem in /opt/qchem-5.3.0-intel2020u1//config/preferences:
Processing $rem in /home/victor/.qchemrc:

Checking the input file for inconsistencies... 	...done.

--------------------------------------------------------------
User input:
--------------------------------------------------------------
$molecule 
0 3 
N        0.6893650303      1.2095750506      2.4771852446                 
O        0.3808388574      2.1834096018      1.8662436269                 
O        1.6107105335      0.9736218683      3.1813335050                 
N        0.0289321641     -1.1501946041      3.1366548868                 
O       -0.4742518469     -1.3252226030      4.1765842817                 
O       -0.2906036084      0.2037997963      2.2622983450                 
$end

$rem
   JOBTYPE         freq
   EXCHANGE omegaB97X-D
   BASIS 6-311+G(2df,2pd)
   XC_GRID 000075000302
   SCF_ALGORITHM DIIS
   MAX_SCF_CYCLES 150
   SCF_CONVERGENCE 8
   SYM_IGNORE TRUE
   SYMMETRY FALSE
   WAVEFUNCTION_ANALYSIS FALSE
   UNRESTRICTED  TRUE
$end

--------------------------------------------------------------
 ----------------------------------------------------------------
             Standard Nuclear Orientation (Angstroms)
    I     Atom           X                Y                Z
 ----------------------------------------------------------------
    1      N       0.6893650303     1.2095750506     2.4771852446
    2      O       0.3808388574     2.1834096018     1.8662436269
    3      O       1.6107105335     0.9736218683     3.1813335050
    4      N       0.0289321641    -1.1501946041     3.1366548868
    5      O      -0.4742518469    -1.3252226030     4.1765842817
    6      O      -0.2906036084     0.2037997963     2.2622983450
 ----------------------------------------------------------------
 Nuclear Repulsion Energy =         231.61525431 hartrees
 There are       24 alpha and       22 beta electrons
 Requested basis set is 6-311+G(2df,2pd)
 There are 48 shells and 204 basis functions

 Total QAlloc Memory Limit   2000 MB
 Mega-Array Size       188 MB
 MEM_STATIC part       192 MB

                       Distance Matrix (Angstroms)
             N (  1)   O (  2)   O (  3)   N (  4)   O (  5)
   O (  2)  1.190291
   O (  3)  1.183375  2.169247
   N (  4)  2.537634  3.584787  2.648512
   O (  5)  3.266062  4.287115  3.259184  1.168453
   O (  6)  1.420598  2.127569  2.247720  1.643138  2.456853
 
 A cutoff of  1.0D-11 yielded   1065 shell pairs
 There are     19780 function pairs (     26003 Cartesian)
 Smallest overlap matrix eigenvalue = 6.70E-04
 Guess from superposition of atomic densities
 Warning:  Energy on first SCF cycle will be non-variational
 SAD guess density has 46.000000 electrons

 -----------------------------------------------------------------------
  General SCF calculation program by
  Eric Jon Sundstrom, Paul Horn, Yuezhi Mao, Dmitri Zuev, Alec White,
  David Stuck, Shaama M.S., Shane Yost, Joonho Lee, David Small,
  Daniel Levine, Susi Lehtola, Hugh Burton, Evgeny Epifanovsky,
  Bang C. Huynh
 -----------------------------------------------------------------------
 Exchange:     0.2220 Hartree-Fock + 1.0000 wB97X-D + LR-HF
 Correlation:  1.0000 wB97X-D
 Using Euler-Maclaurin-Lebedev (75,302) quadrature formula
 Dispersion:   Grimme D
 using 16 threads for integral computing
 -------------------------------------------------------
 OpenMP Integral computing Module                
 Release: version 1.0, May 2013, Q-Chem Inc. Pittsburgh 
 -------------------------------------------------------
 using 16 threads for integral computing
 -------------------------------------------------------
 OpenMP Integral computing Module                
 Release: version 1.0, May 2013, Q-Chem Inc. Pittsburgh 
 -------------------------------------------------------
 A unrestricted SCF calculation will be
 performed using DIIS
 SCF converges when DIIS error is below 1.0e-08
 ---------------------------------------
  Cycle       Energy         DIIS error
 ---------------------------------------
    1    -411.1392584175      1.84e-02  
    2    -409.8130470111      4.19e-03  
    3    -409.5291426839      6.54e-03  
    4    -410.0721791164      7.55e-04  
    5    -410.0777267181      4.63e-04  
    6    -410.0811358200      7.29e-05  
    7    -410.0814153681      4.04e-05  
    8    -410.0815001909      2.99e-05  
    9    -410.0815440309      1.30e-05  
   10    -410.0815590124      7.27e-06  
   11    -410.0815621645      4.83e-06  
   12    -410.0815637105      1.49e-06  
   13    -410.0815640496      8.45e-07  
   14    -410.0815641525      4.58e-07  
   15    -410.0815642044      2.29e-07  
   16    -410.0815642183      1.14e-07  
   17    -410.0815642216      4.75e-08  
   18    -410.0815642221      1.82e-08  
   19    -410.0815642222      8.16e-09  Convergence criterion met
 ---------------------------------------
 SCF time:   CPU 151.06s  wall 10.00s 
<S^2> =          2.018077213
 SCF   energy in the final basis set =     -410.0815642222
 Total energy in the final basis set =     -410.0815642222
 No wavefunction analysis requested
 Calculating MO derivatives via CPSCF
    1     0    21    0.0322118  
    2     0    21    0.0145759  
    3     0    21    0.0044750  
    4     0    21    0.0021774  
    5     0    21    0.0006519  
    6     0    21    0.0002165  
    7     0    21    0.0000771  
    8    14     7    0.0000169  
    9    18     3    0.0000029  
   10    21     0    0.0000004  Converged
 Time for AOints: 36.4 s (CPU) 2.3 s (wall)
 ------------------------------------------------------------------------------
                     AOints        : Timing summary (seconds)
 ------------------------------------------------------------------------------
     job step          cpu (% of tot)      sys (% of tot)     wall (% of tot)
 ------------------------------------------------------------------------------
  AOints            0.3636E+02 ( 3.7)   0.6000E-05 ( 1.2)   0.2273E+01 ( 0.8)
 ------------------------------------------------------------------------------
   Grand Totals     0.9750E+03          0.4850E-03          0.2915E+03
 ------------------------------------------------------------------------------
 Polarizability Matrix (a.u.)
            1           2           3
    1 -32.1254614  -6.0492962  -0.8126591
    2  -6.0492962 -50.5915206  14.8156720
    3  -0.8126591  14.8156720 -36.0708297
 Calculating analytic Hessian of the SCF energy
atom: 0 element: 7
atom: 1 element: 8
atom: 2 element: 8
atom: 3 element: 7
atom: 4 element: 8
atom: 5 element: 8
 
 Direct stationary perturbation theory relativistic correction:
 
 rels  =       0.156642178496
 relv  =      -0.672129004349
 rel2e =       0.000000000000
 E_rel =      -0.515486825853
 
 Hessian of the SCF Energy
            1           2           3           4           5           6
    1   0.6557404  -0.1742402   0.3404268  -0.1432429   0.1090066  -0.0803875
    2  -0.1742402   0.6479393  -0.2858831   0.0831547  -0.4498815   0.2051497
    3   0.3404268  -0.2858831   0.5950050  -0.0689342   0.2211422  -0.2311611
    4  -0.1432429   0.0831547  -0.0689342   0.1427205  -0.1213117   0.1214079
    5   0.1090066  -0.4498815   0.2211422  -0.1213117   0.5537315  -0.2964960
    6  -0.0803875   0.2051497  -0.2311611   0.1214079  -0.2964960   0.2400139
    7  -0.4295279   0.0732056  -0.2514991  -0.0176222   0.0446243  -0.0520624
    8   0.0702449  -0.1425264   0.0673618   0.0666685  -0.0102879   0.0617777
    9  -0.2494765   0.0701043  -0.2869857  -0.0616982   0.0475164  -0.0261533
   10   0.0048531   0.0015003   0.0027560   0.0028218  -0.0022312   0.0018722
   11  -0.0205867  -0.0571807   0.0028310  -0.0089629   0.0066273  -0.0036024
   12   0.0324752   0.0279720   0.0090716  -0.0020562  -0.0145980   0.0056361
   13   0.0059793   0.0016629   0.0075093  -0.0019394  -0.0046662  -0.0009151
   14   0.0018139   0.0062082   0.0024733   0.0013245  -0.0014486   0.0002719
   15  -0.0145916  -0.0083382  -0.0088995   0.0028080   0.0090307  -0.0004117
   16  -0.0938020   0.0147166  -0.0302587   0.0172621  -0.0254217   0.0100850
   17   0.0137616  -0.0045589  -0.0079252  -0.0208731  -0.0987409   0.0328992
   18  -0.0284463  -0.0090048  -0.0770303   0.0084727   0.0334047   0.0120761
            7           8           9          10          11          12
    1  -0.4295279   0.0702449  -0.2494765   0.0048531  -0.0205867   0.0324752
    2   0.0732056  -0.1425264   0.0701043   0.0015003  -0.0571807   0.0279720
    3  -0.2514991   0.0673618  -0.2869857   0.0027560   0.0028310   0.0090716
    4  -0.0176222   0.0666685  -0.0616982   0.0028218  -0.0089629  -0.0020562
    5   0.0446243  -0.0102879   0.0475164  -0.0022312   0.0066273  -0.0145980
    6  -0.0520624   0.0617777  -0.0261533   0.0018722  -0.0036024   0.0056361
    7   0.5083872  -0.0919985   0.3482405   0.0026815  -0.0011703  -0.0063398
    8  -0.0919985   0.1503607  -0.1086501  -0.0061448   0.0031292  -0.0068601
    9   0.3482405  -0.1086501   0.3098147   0.0044059  -0.0018178  -0.0010653
   10   0.0026815  -0.0061448   0.0044059   0.2059765   0.0164064  -0.3219860
   11  -0.0011703   0.0031292  -0.0018178   0.0164064  -0.0291168   0.0229113
   12  -0.0063398  -0.0068601  -0.0010653  -0.3219860   0.0229113   0.5595906
   13  -0.0033690  -0.0000062  -0.0029284  -0.1752366  -0.0090007   0.3064362
   14  -0.0000271  -0.0005537  -0.0002337  -0.0457867  -0.0377785   0.1142184
   15   0.0055767   0.0016345   0.0033859   0.3421717   0.0483838  -0.6422417
   16  -0.0605497  -0.0387639  -0.0385433  -0.0410963   0.0233143  -0.0085294
   17  -0.0246340  -0.0001220  -0.0069190   0.0362561   0.1143196  -0.1436437
   18  -0.0439159  -0.0152637   0.0010037  -0.0292198  -0.0687060   0.0690087
           13          14          15          16          17          18
    1   0.0059793   0.0018139  -0.0145916  -0.0938020   0.0137616  -0.0284463
    2   0.0016629   0.0062082  -0.0083382   0.0147166  -0.0045589  -0.0090048
    3   0.0075093   0.0024733  -0.0088995  -0.0302587  -0.0079252  -0.0770303
    4  -0.0019394   0.0013245   0.0028080   0.0172621  -0.0208731   0.0084727
    5  -0.0046662  -0.0014486   0.0090307  -0.0254217  -0.0987409   0.0334047
    6  -0.0009151   0.0002719  -0.0004117   0.0100850   0.0328992   0.0120761
    7  -0.0033690  -0.0000271   0.0055767  -0.0605497  -0.0246340  -0.0439159
    8  -0.0000062  -0.0005537   0.0016345  -0.0387639  -0.0001220  -0.0152637
    9  -0.0029284  -0.0002337   0.0033859  -0.0385433  -0.0069190   0.0010037
   10  -0.1752366  -0.0457867   0.3421717  -0.0410963   0.0362561  -0.0292198
   11  -0.0090007  -0.0377785   0.0483838   0.0233143   0.1143196  -0.0687060
   12   0.3064362   0.1142184  -0.6422417  -0.0085294  -0.1436437   0.0690087
   13   0.1643607   0.0545911  -0.3338062   0.0102051  -0.0425809   0.0237042
   14   0.0545911   0.0493536  -0.1404164  -0.0119157  -0.0157811   0.0236866
   15  -0.3338062  -0.1404164   0.7146177  -0.0021587   0.0897056  -0.0664506
   16   0.0102051  -0.0119157  -0.0021587   0.1679808   0.0380704   0.0694051
   17  -0.0425809  -0.0157811   0.0897056   0.0380704   0.0048833   0.0358832
   18   0.0237042   0.0236866  -0.0664506   0.0694051   0.0358832   0.0613924
 **********************************************************************
 **                                                                  **
 **                       VIBRATIONAL ANALYSIS                       **
 **                       --------------------                       **
 **                                                                  **
 **        VIBRATIONAL FREQUENCIES (CM**-1) AND NORMAL MODES         **
 **     FORCE CONSTANTS (mDYN/ANGSTROM) AND REDUCED MASSES (AMU)     **
 **                  INFRARED INTENSITIES (KM/MOL)                   **
 **                                                                  **
 **********************************************************************
 

 Mode:                 1                      2                      3
 Frequency:      -606.11                  75.56                  96.50
 Force Cnst:      3.2239                 0.0525                 0.0876
 Red. Mass:      14.8949                15.6153                15.9668
 IR Active:          YES                    YES                    YES
 IR Intens:       24.236                  0.192                  0.199
 Raman Active:       YES                    YES                    YES
               X      Y      Z        X      Y      Z        X      Y      Z
 N          0.067  0.021  0.064   -0.088 -0.072  0.042   -0.003 -0.093  0.016
 O         -0.024 -0.114  0.016    0.216 -0.039 -0.059   -0.306  0.092  0.465
 O          0.048  0.001  0.033   -0.332 -0.172  0.333    0.091 -0.152 -0.129
 N         -0.097  0.649 -0.335   -0.256 -0.086 -0.321   -0.023 -0.067  0.010
 O          0.035  0.081 -0.125    0.583  0.292  0.145   -0.062  0.488  0.087
 O         -0.033 -0.555  0.313   -0.167  0.058 -0.175    0.299 -0.287 -0.446
 TransDip   0.064  0.125 -0.072   -0.011 -0.004 -0.008    0.007  0.004 -0.012

 Mode:                 4                      5                      6
 Frequency:       280.62                 363.19                 561.31
 Force Cnst:      0.6842                 1.1940                 2.8566
 Red. Mass:      14.7471                15.3632                15.3882
 IR Active:          YES                    YES                    YES
 IR Intens:        1.543                  1.644                  2.685
 Raman Active:       YES                    YES                    YES
               X      Y      Z        X      Y      Z        X      Y      Z
 N         -0.168 -0.097 -0.055   -0.054 -0.161  0.135    0.062 -0.268  0.098
 O          0.142  0.082  0.068   -0.146 -0.271 -0.051   -0.360 -0.437 -0.028
 O         -0.275 -0.431 -0.017    0.066 -0.016  0.048    0.140 -0.072  0.140
 N          0.596  0.395  0.272    0.348 -0.313 -0.226   -0.140  0.447  0.009
 O         -0.028  0.030 -0.106   -0.108  0.515 -0.318    0.084 -0.127 -0.018
 O         -0.214  0.059 -0.136   -0.069  0.187  0.401    0.204  0.480 -0.187
 TransDip  -0.021 -0.033  0.005   -0.016 -0.035  0.014   -0.026 -0.045 -0.008

 Mode:                 7                      8                      9
 Frequency:       686.95                 780.49                 867.16
 Force Cnst:      4.4119                 5.1741                 6.6571
 Red. Mass:      15.8683                14.4160                15.0258
 IR Active:          YES                    YES                    YES
 IR Intens:        2.315                 12.339                178.630
 Raman Active:       YES                    YES                    YES
               X      Y      Z        X      Y      Z        X      Y      Z
 N         -0.104  0.157 -0.118   -0.449  0.298  0.709    0.464  0.502  0.069
 O         -0.140  0.222 -0.189    0.135 -0.110 -0.230   -0.366  0.060 -0.260
 O         -0.324 -0.410 -0.048    0.165 -0.103 -0.221    0.166 -0.359  0.269
 N         -0.104 -0.016 -0.057   -0.007  0.002 -0.004    0.070 -0.092  0.029
 O         -0.000 -0.025  0.031    0.013 -0.001  0.000   -0.019  0.014  0.016
 O          0.646  0.090  0.360    0.086 -0.049 -0.167   -0.248 -0.073 -0.111
 TransDip  -0.035 -0.031 -0.012   -0.057  0.035  0.090    0.250  0.347 -0.013

 Mode:                10                     11                     12
 Frequency:      1374.28                1714.28                1790.41
 Force Cnst:     17.0759                25.9074                27.5601
 Red. Mass:      15.3456                14.9627                14.5924
 IR Active:          YES                    YES                    YES
 IR Intens:      252.628                 47.444                410.941
 Raman Active:       YES                    YES                    YES
               X      Y      Z        X      Y      Z        X      Y      Z
 N         -0.348 -0.449 -0.039    0.003 -0.061  0.027    0.494 -0.442  0.512
 O         -0.113  0.505 -0.286   -0.007  0.036 -0.020   -0.098  0.295 -0.189
 O          0.454 -0.070  0.326   -0.002  0.009 -0.005   -0.307  0.093 -0.241
 N         -0.025  0.025  0.016    0.349  0.029 -0.625   -0.018  0.010  0.037
 O          0.014  0.004 -0.029   -0.290 -0.112  0.609    0.019  0.005 -0.037
 O         -0.029 -0.068  0.008   -0.009  0.095 -0.060   -0.032 -0.016 -0.015
 TransDip  -0.271 -0.428  0.047    0.069  0.154 -0.142    0.451 -0.255  0.392

 STANDARD THERMODYNAMIC QUANTITIES AT   298.15 K  AND     1.00 ATM

   This Molecule has  1 Imaginary Frequencies
   Zero point vibrational energy:       12.281 kcal/mol

   Atom    1 Element N  Has Mass   14.00307
   Atom    2 Element O  Has Mass   15.99491
   Atom    3 Element O  Has Mass   15.99491
   Atom    4 Element N  Has Mass   14.00307
   Atom    5 Element O  Has Mass   15.99491
   Atom    6 Element O  Has Mass   15.99491
   Molecular Mass:    91.985780 amu
   Principal axes and moments of inertia in amu*Bohr^2:
                             1           2           3
    Eigenvalues --      171.75893   736.42215   855.36392
          X               0.29107     0.81719    -0.49748
          Y               0.85415     0.01226     0.51988
          Z              -0.43094     0.57624     0.69443
   Rotational Symmetry Number is   1
   The Molecule is an Asymmetric Top
   Translational Enthalpy:        0.889 kcal/mol
   Rotational Enthalpy:           0.889 kcal/mol
   Vibrational Enthalpy:         14.021 kcal/mol
   gas constant (RT):             0.592 kcal/mol
   Translational Entropy:        39.469  cal/mol.K
   Rotational Entropy:           26.184  cal/mol.K
   Vibrational Entropy:          11.419  cal/mol.K

   Total Enthalpy:               16.391 kcal/mol
   Total Entropy:                77.072  cal/mol.K
Archival summary:
1\1\centos77-c1\FREQ\ProcedureUnspecified\BasisUnspecified\42(3)\victor\MonJul601:56:192020MonJul601:56:192020\0\\#,FREQ,ProcedureUnspecified,BasisUnspecified,\\0,3\N\O,1,1.18337\O,1,1.19029,2,132.094\O,1,1.4206,2,119.073,3,-179.738,0\N,4,1.64314,1,111.64,2,2.64774,0\O,5,1.16845,4,120.883,1,95.6987,0\\\@

 Total job time:  430.78s(wall), 1555.16s(cpu) 
 Mon Jul  6 01:56:19 2020

        *************************************************************
        *                                                           *
        *  Thank you very much for using Q-Chem.  Have a nice day.  *
        *                                                           *
        *************************************************************


