                  Welcome to Q-Chem
     A Quantum Leap Into The Future Of Chemistry


 Q-Chem 5.3 (devel), Q-Chem, Inc., Pleasanton, CA (2020)

 Yihan Shao,  Zhengting Gan,  E. Epifanovsky,  A. T. B. Gilbert,  M. Wormit,  
 J. Kussmann,  A. W. Lange,  A. Behn,  Jia Deng,  Xintian Feng,  D. Ghosh,  
 M. Goldey,  P. R. Horn,  L. D. Jacobson,  I. Kaliman,  T. Kus,  A. Landau,  
 Jie Liu,  E. I. Proynov,  R. M. Richard,  R. P. Steele,  E. J. Sundstrom,  
 H. L. Woodcock III,  P. M. Zimmerman,  D. Zuev,  B. Alam,  B. Albrecht,  
 E. Alguire,  S. A. Baeppler,  D. Barton,  Z. Benda,  Y. A. Bernard,  
 E. J. Berquist,  K. B. Bravaya,  H. Burton,  K. Carter-Fenk,  D. Casanova,  
 Chun-Min Chang,  Yunqing Chen,  A. Chien,  K. D. Closser,  M. P. Coons,  
 S. Coriani,  S. Dasgupta,  A. L. Dempwolff,  M. Diedenhofen,  Hainam Do,  
 R. G. Edgar,  Po-Tung Fang,  S. Faraji,  S. Fatehi,  Qingguo Feng,  
 J. Fosso-Tande,  J. Gayvert,  Qinghui Ge,  A. Ghysels,  G. Gidofalvi,  
 J. Gomes,  J. Gonthier,  A. Gunina,  D. Hait,  M. W. D. Hanson-Heine,  
 P. H. P. Harbach,  A. W. Hauser,  M. F. Herbst,  J. E. Herr,  
 E. G. Hohenstein,  Z. C. Holden,  Kerwin Hui,  B. C. Huynh,  T.-C. Jagau,  
 Hyunjun Ji,  B. Kaduk,  K. Khistyaev,  Jaehoon Kim,  P. Klunzinger,  K. Koh,  
 D. Kosenkov,  L. Koulias,  T. Kowalczyk,  C. M. Krauter,  A. Kunitsa,  
 Ka Un Lao,  A. Laurent,  K. V. Lawler,  Joonho Lee,  D. Lefrancois,  
 S. Lehtola,  D. S. Levine,  Yi-Pei Li,  You-Sheng Lin,  Fenglai Liu,  
 Kuan-Yu Liu,  E. Livshits,  M. Loipersberger,  A. Luenser,  P. Manohar,  
 E. Mansoor,  S. F. Manzer,  Shan-Ping Mao,  Yuezhi Mao,  N. Mardirossian,  
 A. V. Marenich,  T. Markovich,  L. A. Martinez-Martinez,  S. A. Maurer,  
 N. J. Mayhall,  S. C. McKenzie,  J.-M. Mewes,  P. Morgante,  A. F. Morrison,  
 J. W. Mullinax,  K. Nanda,  T. S. Nguyen-Beck,  R. Olivares-Amaya,  
 K. J. Oosterbaan,  J. A. Parkhill,  S. K. Paul,  F. Pavosevic,  Zheng Pei,  
 T. M. Perrine,  F. Plasser,  P. Pokhilko,  S. Prager,  A. Prociuk,  
 E. Ramos,  B. Rana,  D. R. Rehn,  F. Rob,  M. Scheurer,  M. Schneider,  
 N. Sergueev,  S. M. Sharada,  S. Sharma,  D. W. Small,  T. Stauch,  
 C. J. Stein,  T. Stein,  Yu-Chuan Su,  S. P. Veccham,  Zhen Tao,  
 A. J. W. Thom,  A. Tkatchenko,  T. Tsuchimochi,  N. M. Tubman,  L. Vogt,  
 M. L. Vidal,  O. Vydrov,  M. A. Watson,  J. Wenzel,  M. de Wergifosse,  
 T. A. Wesolowski,  A. White,  J. Witte,  A. Yamada,  Jun Yang,  K. Yao,  
 S. Yeganeh,  S. R. Yost,  Zhi-Qiang You,  A. Zech,  Igor Ying Zhang,  
 Xing Zhang,  Yan Zhao,  Ying Zhu,  B. R. Brooks,  G. K. L. Chan,  
 C. J. Cramer,  M. S. Gordon,  W. J. Hehre,  A. Klamt,  M. W. Schmidt,  
 C. D. Sherrill,  D. G. Truhlar,  A. Aspuru-Guzik,  R. Baer,  A. T. Bell,  
 N. A. Besley,  Jeng-Da Chai,  A. E. DePrince, III,  R. A. DiStasio Jr.,  
 A. Dreuw,  B. D. Dunietz,  T. R. Furlani,  Chao-Ping Hsu,  Yousung Jung,  
 Jing Kong,  D. S. Lambrecht,  WanZhen Liang,  C. Ochsenfeld,  
 V. A. Rassolov,  L. V. Slipchenko,  J. E. Subotnik,  T. Van Voorhis,  
 J. M. Herbert,  A. I. Krylov,  P. M. W. Gill,  M. Head-Gordon

 Contributors to earlier versions of Q-Chem not listed above: 
 R. D. Adamson,  B. Austin,  J. Baker,  G. J. O. Beran,  K. Brandhorst,  
 S. T. Brown,  E. F. C. Byrd,  A. K. Chakraborty,  C.-L. Cheng,  
 Siu Hung Chien,  D. M. Chipman,  D. L. Crittenden,  H. Dachsel,  
 R. J. Doerksen,  A. D. Dutoi,  L. Fusti-Molnar,  W. A. Goddard III,  
 A. Golubeva-Zadorozhnaya,  S. R. Gwaltney,  G. Hawkins,  A. Heyden,  
 S. Hirata,  G. Kedziora,  F. J. Keil,  C. Kelley,  Jihan Kim,  R. A. King,  
 R. Z. Khaliullin,  P. P. Korambath,  W. Kurlancheek,  A. M. Lee,  M. S. Lee,  
 S. V. Levchenko,  Ching Yeh Lin,  D. Liotard,  R. C. Lochan,  I. Lotan,  
 P. E. Maslen,  N. Nair,  D. P. O'Neill,  D. Neuhauser,  E. Neuscamman,  
 C. M. Oana,  R. Olson,  B. Peters,  R. Peverati,  P. A. Pieniazek,  
 Y. M. Rhee,  J. Ritchie,  M. A. Rohrdanz,  E. Rosta,  N. J. Russ,  
 H. F. Schaefer III,  N. E. Schultz,  N. Shenvi,  A. C. Simmonett,  A. Sodt,  
 D. Stuck,  K. S. Thanthiriwatte,  V. Vanovschi,  Tao Wang,  A. Warshel,  
 C. F. Williams,  Q. Wu,  X. Xu,  W. Zhang

 Please cite Q-Chem as follows:
 Y. Shao et al., Mol. Phys. 113, 184-215 (2015)
 DOI: 10.1080/00268976.2014.952696

 Q-Chem 5.3.0 for Intel X86 EM64T Linux

 Parts of Q-Chem use Armadillo 9.800.1 (Horizon Scraper).
 http://arma.sourceforge.net/

 Q-Chem begins on Sun Jul 12 15:26:35 2020  

Host: centos77-c2
0

     Scratch files written to /tmp/28899.centos77-h1/qchem97920//
Processing $rem in /opt/qchem-5.3.0-intel2020u1//config/preferences:
Processing $rem in /home/shihchengli/.qchemrc:

Checking the input file for inconsistencies... 	...done.

--------------------------------------------------------------
User input:
--------------------------------------------------------------
$molecule 
0 3 
N        0.6893650303      1.2095750506      2.4771852446                 
O        0.3808388574      2.1834096018      1.8662436269                 
O        1.6107105335      0.9736218683      3.1813335050                 
N        0.0289321641     -1.1501946041      3.1366548868                 
O       -0.4742518469     -1.3252226030      4.1765842817                 
O       -0.2906036084      0.2037997963      2.2622983450   
$end

$rem
   JOBTYPE         ts
   EXCHANGE omegaB97X-D
   BASIS 6-311+G(2df,2pd)
   XC_GRID 000075000302
   SCF_ALGORITHM DIIS
   MAX_SCF_CYCLES 150
   SCF_CONVERGENCE 8
   SYM_IGNORE TRUE
   SYMMETRY FALSE
   WAVEFUNCTION_ANALYSIS FALSE
   UNRESTRICTED  TRUE
$end

--------------------------------------------------------------
 ----------------------------------------------------------------
             Standard Nuclear Orientation (Angstroms)
    I     Atom           X                Y                Z
 ----------------------------------------------------------------
    1      N       0.6893650303     1.2095750506     2.4771852446
    2      O       0.3808388574     2.1834096018     1.8662436269
    3      O       1.6107105335     0.9736218683     3.1813335050
    4      N       0.0289321641    -1.1501946041     3.1366548868
    5      O      -0.4742518469    -1.3252226030     4.1765842817
    6      O      -0.2906036084     0.2037997963     2.2622983450
 ----------------------------------------------------------------
 Nuclear Repulsion Energy =         231.61525431 hartrees
 There are       24 alpha and       22 beta electrons
 Requested basis set is 6-311+G(2df,2pd)
 There are 48 shells and 204 basis functions

 Total QAlloc Memory Limit   2000 MB
 Mega-Array Size       188 MB
 MEM_STATIC part       192 MB
 A cutoff of  1.0D-11 yielded   1065 shell pairs
 There are     19780 function pairs (     26003 Cartesian)
 Smallest overlap matrix eigenvalue = 6.70E-04

 Scale SEOQF with 1.000000e-01/1.000000e-01/1.000000e-01

 Standard Electronic Orientation quadrupole field applied
 Nucleus-field energy     =    -0.0000000363 hartrees
 Guess from superposition of atomic densities
 Warning:  Energy on first SCF cycle will be non-variational
 SAD guess density has 46.000000 electrons

 -----------------------------------------------------------------------
  General SCF calculation program by
  Eric Jon Sundstrom, Paul Horn, Yuezhi Mao, Dmitri Zuev, Alec White,
  David Stuck, Shaama M.S., Shane Yost, Joonho Lee, David Small,
  Daniel Levine, Susi Lehtola, Hugh Burton, Evgeny Epifanovsky,
  Bang C. Huynh
 -----------------------------------------------------------------------
 Exchange:     0.2220 Hartree-Fock + 1.0000 wB97X-D + LR-HF
 Correlation:  1.0000 wB97X-D
 Using Euler-Maclaurin-Lebedev (75,302) quadrature formula
 Dispersion:   Grimme D
 using 6 threads for integral computing
 -------------------------------------------------------
 OpenMP Integral computing Module                
 Release: version 1.0, May 2013, Q-Chem Inc. Pittsburgh 
 -------------------------------------------------------
 using 6 threads for integral computing
 -------------------------------------------------------
 OpenMP Integral computing Module                
 Release: version 1.0, May 2013, Q-Chem Inc. Pittsburgh 
 -------------------------------------------------------
 A unrestricted SCF calculation will be
 performed using DIIS
 SCF converges when DIIS error is below 1.0e-08
 ---------------------------------------
  Cycle       Energy         DIIS error
 ---------------------------------------
    1    -411.1392584175      1.84e-02  
    2    -409.8130470115      4.19e-03  
    3    -409.5291426855      6.54e-03  
    4    -410.0721791165      7.55e-04  
    5    -410.0777267181      4.63e-04  
    6    -410.0811358200      7.29e-05  
    7    -410.0814153682      4.04e-05  
    8    -410.0815001909      2.99e-05  
    9    -410.0815440310      1.30e-05  
   10    -410.0815590124      7.27e-06  
   11    -410.0815621645      4.83e-06  
   12    -410.0815637106      1.49e-06  
   13    -410.0815640496      8.45e-07  
   14    -410.0815641525      4.58e-07  
   15    -410.0815642044      2.29e-07  
   16    -410.0815642183      1.14e-07  
   17    -410.0815642216      4.75e-08  
   18    -410.0815642222      1.82e-08  
   19    -410.0815642222      8.16e-09  Convergence criterion met
 ---------------------------------------
 SCF time:   CPU 200.96s  wall 35.00s 
<S^2> =          2.018077213
 SCF   energy in the final basis set =     -410.0815642222
 Total energy in the final basis set =     -410.0815642222
 No wavefunction analysis requested
 Calculating analytic gradient of the SCF energy
 Gradient of SCF Energy
            1           2           3           4           5           6
    1  -0.0000086   0.0000206  -0.0000151   0.0000216  -0.0000253   0.0000069
    2   0.0000360  -0.0000063  -0.0000202  -0.0000983   0.0000133   0.0000754
    3   0.0000381  -0.0000058  -0.0000098   0.0000233  -0.0000225  -0.0000233
 Max gradient component =       9.825E-05
 RMS gradient           =       3.520E-05
 Gradient time:  CPU 34.48 s  wall 6.07 s
 Geometry Optimization Parameters
   NAtoms,    NIC,     NZ,  NCons,   NDum,   NFix, NCnnct, MaxDiis
        6      25       0       0       0       0       0       0


** GEOMETRY OPTIMIZATION IN DELOCALIZED INTERNAL COORDINATES **
   Searching for a Transition State

   Optimization Cycle:   1

                       Coordinates (Angstroms)
     ATOM                X               Y               Z
      1  N         0.6893650303    1.2095750506    2.4771852446
      2  O         0.3808388574    2.1834096018    1.8662436269
      3  O         1.6107105335    0.9736218683    3.1813335050
      4  N         0.0289321641   -1.1501946041    3.1366548868
      5  O        -0.4742518469   -1.3252226030    4.1765842817
      6  O        -0.2906036084    0.2037997963    2.2622983450
   Point Group: c1    Number of degrees of freedom:    12


   Energy is   -410.081564222


 Attempting to generate delocalized internal coordinates
 Initial Hessian constructed with Jon Baker's OPTIMIZE code

 12 Hessian modes will be used to form the next step
  Hessian Eigenvalues:
     0.002000    0.006382    0.006385    0.210350    0.250000    0.250000
     0.250000    0.250000    0.423704    1.098571    1.136410    1.224179
**WARNING** Hessian does not have the desired local structure
**WARNING** Hessian does not have the desired local structure

 Transition state search - taking P-RFO step
 Searching for Lamda that Maximizes Along the Lowest mode
 Value Taken    Lamda =   0.00200001
 Searching for Lamda that Minimizes Along All other modes
 Value Taken    Lamda =  -0.00000048
 Calculated Step too Large.  Step scaled by  0.000649
 Step Taken.  Stepsize is  0.300000

                             Maximum     Tolerance    Cnvgd?
         Gradient           0.000061      0.000300     YES
         Displacement       0.181275      0.001200      NO
         Energy change     *********      0.000001      NO


 New Cartesian Coordinates Obtained by Inverse Iteration

 Displacement from previous Coordinates is:  0.394173
 ----------------------------------------------------------------
             Standard Nuclear Orientation (Angstroms)
    I     Atom           X                Y                Z
 ----------------------------------------------------------------
    1      N       0.7040421187     1.2262188716     2.4637605183
    2      O       0.3644818196     2.1856548559     1.8465302614
    3      O       1.6603257197     1.0059779313     3.1251165735
    4      N       0.0785346504    -1.1165201984     3.2120236321
    5      O      -0.5768233124    -1.4230810901     4.1295248360
    6      O      -0.2855698660     0.2167387396     2.3233440686
 ----------------------------------------------------------------
 Nuclear Repulsion Energy =         230.57147065 hartrees
 There are       24 alpha and       22 beta electrons
 Applying Cartesian multipole field
    Component          Value
    ---------          -----
     (2,0,0)        1.00000E-11
     (0,2,0)        2.00000E-11
     (0,0,2)       -3.00000E-11
 Nucleus-field energy     =    -0.0000000359 hartrees
 Requested basis set is 6-311+G(2df,2pd)
 There are 48 shells and 204 basis functions
 A cutoff of  1.0D-11 yielded   1057 shell pairs
 There are     19584 function pairs (     25715 Cartesian)
 Smallest overlap matrix eigenvalue = 7.27E-04
 Guess MOs from SCF MO coefficient file

 -----------------------------------------------------------------------
  General SCF calculation program by
  Eric Jon Sundstrom, Paul Horn, Yuezhi Mao, Dmitri Zuev, Alec White,
  David Stuck, Shaama M.S., Shane Yost, Joonho Lee, David Small,
  Daniel Levine, Susi Lehtola, Hugh Burton, Evgeny Epifanovsky,
  Bang C. Huynh
 -----------------------------------------------------------------------
 Exchange:     0.2220 Hartree-Fock + 1.0000 wB97X-D + LR-HF
 Correlation:  1.0000 wB97X-D
 Using Euler-Maclaurin-Lebedev (75,302) quadrature formula
 Dispersion:   Grimme D
 using 6 threads for integral computing
 -------------------------------------------------------
 OpenMP Integral computing Module                
 Release: version 1.0, May 2013, Q-Chem Inc. Pittsburgh 
 -------------------------------------------------------
 using 6 threads for integral computing
 -------------------------------------------------------
 OpenMP Integral computing Module                
 Release: version 1.0, May 2013, Q-Chem Inc. Pittsburgh 
 -------------------------------------------------------
 A unrestricted SCF calculation will be
 performed using DIIS
 SCF converges when DIIS error is below 1.0e-08
 ---------------------------------------
  Cycle       Energy         DIIS error
 ---------------------------------------
    1    -410.0426714629      1.21e-03  
    2    -410.0782532102      2.28e-04  
    3    -410.0806962491      1.24e-04  
    4    -410.0809629718      9.35e-05  
    5    -410.0811953481      2.32e-05  
    6    -410.0812453498      1.94e-05  
    7    -410.0812709926      9.96e-06  
    8    -410.0812867357      5.70e-06  
    9    -410.0812937775      3.67e-06  
   10    -410.0812963739      1.75e-06  
   11    -410.0812966310      7.42e-07  
   12    -410.0812967095      3.30e-07  
   13    -410.0812967262      1.39e-07  
   14    -410.0812967294      7.41e-08  
   15    -410.0812967297      5.17e-08  
   16    -410.0812967299      2.07e-08  
   17    -410.0812967300      1.24e-08  
   18    -410.0812967300      5.46e-09  Convergence criterion met
 ---------------------------------------
 SCF time:   CPU 196.08s  wall 34.00s 
<S^2> =          2.018165044
 SCF   energy in the final basis set =     -410.0812967300
 Total energy in the final basis set =     -410.0812967300
 No wavefunction analysis requested
 Calculating analytic gradient of the SCF energy
 Gradient of SCF Energy
            1           2           3           4           5           6
    1   0.0008644  -0.0001443  -0.0000210  -0.0000273  -0.0002525  -0.0004193
    2   0.0001910   0.0000868  -0.0001090   0.0018952  -0.0012503  -0.0008137
    3  -0.0016181   0.0004283   0.0004443   0.0001881   0.0000529   0.0005046
 Max gradient component =       1.895E-03
 RMS gradient           =       7.518E-04
 Gradient time:  CPU 34.76 s  wall 5.83 s
 Geometry Optimization Parameters
   NAtoms,    NIC,     NZ,  NCons,   NDum,   NFix, NCnnct, MaxDiis
        6      25       0       0       0       0       0       0

 Cartesian Hessian Update
 Hessian updated using Powell/Murtagh-Sargent update
  Mixing factors:     0.000062 Powell                      0.999938 Murtagh-Sargent


** GEOMETRY OPTIMIZATION IN DELOCALIZED INTERNAL COORDINATES **
   Searching for a Transition State

   Optimization Cycle:   2

                       Coordinates (Angstroms)
     ATOM                X               Y               Z
      1  N         0.7040421187    1.2262188716    2.4637605183
      2  O         0.3644818196    2.1856548559    1.8465302614
      3  O         1.6603257197    1.0059779313    3.1251165735
      4  N         0.0785346504   -1.1165201984    3.2120236321
      5  O        -0.5768233124   -1.4230810901    4.1295248360
      6  O        -0.2855698660    0.2167387396    2.3233440686
   Point Group: c1    Number of degrees of freedom:    12


   Energy is   -410.081296730

 Hessian updated using Powell/Murtagh-Sargent update
  Mixing factors:     0.867630 Powell                      0.132370 Murtagh-Sargent

 12 Hessian modes will be used to form the next step
  Hessian Eigenvalues:
     0.001900    0.006382    0.010206    0.210498    0.250000    0.250000
     0.250000    0.251889    0.423857    1.098577    1.136447    1.224301
**WARNING** Hessian does not have the desired local structure
**WARNING** Hessian does not have the desired local structure

 Transition state search - taking P-RFO step
 Searching for Lamda that Maximizes Along the Lowest mode
 Value Taken    Lamda =   0.00201658
 Searching for Lamda that Minimizes Along All other modes
 Value Taken    Lamda =  -0.00034119
 Calculated Step too Large.  Step scaled by  0.072185
 Step Taken.  Stepsize is  0.300000

                             Maximum     Tolerance    Cnvgd?
         Gradient           0.001558      0.000300      NO
         Displacement       0.223335      0.001200      NO
         Energy change      0.000267      0.000001      NO


 New Cartesian Coordinates Obtained by Inverse Iteration

 Displacement from previous Coordinates is:  0.431644
 ----------------------------------------------------------------
             Standard Nuclear Orientation (Angstroms)
    I     Atom           X                Y                Z
 ----------------------------------------------------------------
    1      N       0.6792484271     1.2760493292     2.5218680062
    2      O       0.3867418373     2.1517842730     1.7705933306
    3      O       1.6987244932     1.0218171141     3.0660994616
    4      N       0.1106815252    -1.0788825908     3.2802638184
    5      O      -0.6354338583    -1.5256838594     4.0603856673
    6      O      -0.2949712945     0.2499048437     2.4010896060
 ----------------------------------------------------------------
 Nuclear Repulsion Energy =         230.10455528 hartrees
 There are       24 alpha and       22 beta electrons
 Applying Cartesian multipole field
    Component          Value
    ---------          -----
     (2,0,0)        1.00000E-11
     (0,2,0)        2.00000E-11
     (0,0,2)       -3.00000E-11
 Nucleus-field energy     =    -0.0000000355 hartrees
 Requested basis set is 6-311+G(2df,2pd)
 There are 48 shells and 204 basis functions
 A cutoff of  1.0D-11 yielded   1053 shell pairs
 There are     19554 function pairs (     25683 Cartesian)
 Smallest overlap matrix eigenvalue = 7.53E-04
 Guess MOs from SCF MO coefficient file

 -----------------------------------------------------------------------
  General SCF calculation program by
  Eric Jon Sundstrom, Paul Horn, Yuezhi Mao, Dmitri Zuev, Alec White,
  David Stuck, Shaama M.S., Shane Yost, Joonho Lee, David Small,
  Daniel Levine, Susi Lehtola, Hugh Burton, Evgeny Epifanovsky,
  Bang C. Huynh
 -----------------------------------------------------------------------
 Exchange:     0.2220 Hartree-Fock + 1.0000 wB97X-D + LR-HF
 Correlation:  1.0000 wB97X-D
 Using Euler-Maclaurin-Lebedev (75,302) quadrature formula
 Dispersion:   Grimme D
 using 6 threads for integral computing
 -------------------------------------------------------
 OpenMP Integral computing Module                
 Release: version 1.0, May 2013, Q-Chem Inc. Pittsburgh 
 -------------------------------------------------------
 using 6 threads for integral computing
 -------------------------------------------------------
 OpenMP Integral computing Module                
 Release: version 1.0, May 2013, Q-Chem Inc. Pittsburgh 
 -------------------------------------------------------
 A unrestricted SCF calculation will be
 performed using DIIS
 SCF converges when DIIS error is below 1.0e-08
 ---------------------------------------
  Cycle       Energy         DIIS error
 ---------------------------------------
    1    -410.0204293276      1.43e-03  
    2    -410.0716721473      2.74e-04  
    3    -410.0750791925      1.21e-04  
    4    -410.0753212059      1.10e-04  
    5    -410.0755653565      2.77e-05  
    6    -410.0756100298      1.85e-05  
    7    -410.0756313440      9.17e-06  
    8    -410.0756431946      5.45e-06  
    9    -410.0756470268      4.76e-06  
   10    -410.0756507405      1.68e-06  
   11    -410.0756515187      7.32e-07  
   12    -410.0756515856      5.91e-07  
   13    -410.0756516091      2.29e-07  
   14    -410.0756516172      1.12e-07  
   15    -410.0756516187      5.11e-08  
   16    -410.0756516192      2.73e-08  
   17    -410.0756516193      1.59e-08  
   18    -410.0756516194      7.24e-09  Convergence criterion met
 ---------------------------------------
 SCF time:   CPU 195.78s  wall 36.00s 
<S^2> =          2.018362570
 SCF   energy in the final basis set =     -410.0756516194
 Total energy in the final basis set =     -410.0756516194
 No wavefunction analysis requested
 Calculating analytic gradient of the SCF energy
 Gradient of SCF Energy
            1           2           3           4           5           6
    1  -0.0192751   0.0088372   0.0034977  -0.0002362   0.0003365   0.0068399
    2   0.0233293  -0.0132476  -0.0076711   0.0017245  -0.0014725  -0.0026625
    3   0.0393782  -0.0120361  -0.0176379  -0.0008734  -0.0000010  -0.0088299
 Max gradient component =       3.938E-02
 RMS gradient           =       1.371E-02
 Gradient time:  CPU 34.98 s  wall 5.94 s
 Geometry Optimization Parameters
   NAtoms,    NIC,     NZ,  NCons,   NDum,   NFix, NCnnct, MaxDiis
        6      25       0       0       0       0       0       0

 Cartesian Hessian Update
 Hessian updated using Powell/Murtagh-Sargent update
  Mixing factors:     0.675992 Powell                      0.324008 Murtagh-Sargent


** GEOMETRY OPTIMIZATION IN DELOCALIZED INTERNAL COORDINATES **
   Searching for a Transition State

   Optimization Cycle:   3

                       Coordinates (Angstroms)
     ATOM                X               Y               Z
      1  N         0.6792484271    1.2760493292    2.5218680062
      2  O         0.3867418373    2.1517842730    1.7705933306
      3  O         1.6987244932    1.0218171141    3.0660994616
      4  N         0.1106815252   -1.0788825908    3.2802638184
      5  O        -0.6354338583   -1.5256838594    4.0603856673
      6  O        -0.2949712945    0.2499048437    2.4010896060
   Point Group: c1    Number of degrees of freedom:    12


   Energy is   -410.075651619

 Hessian updated using Powell/Murtagh-Sargent update
  Mixing factors:     0.602956 Powell                      0.397044 Murtagh-Sargent

 11 Hessian modes will be used to form the next step
  Hessian Eigenvalues:
    -0.048053    0.006476    0.210494    0.230653    0.250000    0.251835
     0.275863    0.424718    1.099479    1.137157    1.224301

 Transition state search - taking P-RFO step
 Searching for Lamda that Maximizes Along the Lowest mode
 Value Taken    Lamda =   0.00123290
 Searching for Lamda that Minimizes Along All other modes
 Value Taken    Lamda =  -0.01223131
 Step Taken.  Stepsize is  0.265726

                             Maximum     Tolerance    Cnvgd?
         Gradient           0.031195      0.000300      NO
         Displacement       0.200748      0.001200      NO
         Energy change      0.005645      0.000001      NO


 New Cartesian Coordinates Obtained by Inverse Iteration

 Displacement from previous Coordinates is:  0.380864
 ----------------------------------------------------------------
             Standard Nuclear Orientation (Angstroms)
    I     Atom           X                Y                Z
 ----------------------------------------------------------------
    1      N       0.7038157286     1.2290828986     2.4655121980
    2      O       0.3667145429     2.1827015558     1.8375660266
    3      O       1.6656562797     1.0117545994     3.1197486181
    4      N       0.0843681963    -1.1150582780     3.2192942381
    5      O      -0.5863902417    -1.4354300888     4.1204988091
    6      O      -0.2891733757     0.2219384228     2.3376800002
 ----------------------------------------------------------------
 Nuclear Repulsion Energy =         230.46118032 hartrees
 There are       24 alpha and       22 beta electrons
 Applying Cartesian multipole field
    Component          Value
    ---------          -----
     (2,0,0)        1.00000E-11
     (0,2,0)        2.00000E-11
     (0,0,2)       -3.00000E-11
 Nucleus-field energy     =    -0.0000000358 hartrees
 Requested basis set is 6-311+G(2df,2pd)
 There are 48 shells and 204 basis functions
 A cutoff of  1.0D-11 yielded   1057 shell pairs
 There are     19584 function pairs (     25715 Cartesian)
 Smallest overlap matrix eigenvalue = 7.35E-04
 Guess MOs from SCF MO coefficient file

 -----------------------------------------------------------------------
  General SCF calculation program by
  Eric Jon Sundstrom, Paul Horn, Yuezhi Mao, Dmitri Zuev, Alec White,
  David Stuck, Shaama M.S., Shane Yost, Joonho Lee, David Small,
  Daniel Levine, Susi Lehtola, Hugh Burton, Evgeny Epifanovsky,
  Bang C. Huynh
 -----------------------------------------------------------------------
 Exchange:     0.2220 Hartree-Fock + 1.0000 wB97X-D + LR-HF
 Correlation:  1.0000 wB97X-D
 Using Euler-Maclaurin-Lebedev (75,302) quadrature formula
 Dispersion:   Grimme D
 using 6 threads for integral computing
 -------------------------------------------------------
 OpenMP Integral computing Module                
 Release: version 1.0, May 2013, Q-Chem Inc. Pittsburgh 
 -------------------------------------------------------
 using 6 threads for integral computing
 -------------------------------------------------------
 OpenMP Integral computing Module                
 Release: version 1.0, May 2013, Q-Chem Inc. Pittsburgh 
 -------------------------------------------------------
 A unrestricted SCF calculation will be
 performed using DIIS
 SCF converges when DIIS error is below 1.0e-08
 ---------------------------------------
  Cycle       Energy         DIIS error
 ---------------------------------------
    1    -410.0360541494      1.29e-03  
    2    -410.0780137153      2.50e-04  
    3    -410.0806990657      1.34e-04  
    4    -410.0809391042      1.07e-04  
    5    -410.0811797184      2.20e-05  
    6    -410.0812206615      1.23e-05  
    7    -410.0812367032      1.07e-05  
    8    -410.0812447509      5.00e-06  
    9    -410.0812490980      3.45e-06  
   10    -410.0812518529      1.81e-06  
   11    -410.0812522823      9.22e-07  
   12    -410.0812523729      3.94e-07  
   13    -410.0812523900      2.91e-07  
   14    -410.0812523955      1.20e-07  
   15    -410.0812523975      4.22e-08  
   16    -410.0812523978      2.44e-08  
   17    -410.0812523980      1.39e-08  
   18    -410.0812523980      5.92e-09  Convergence criterion met
 ---------------------------------------
 SCF time:   CPU 192.96s  wall 33.00s 
<S^2> =          2.018270300
 SCF   energy in the final basis set =     -410.0812523980
 Total energy in the final basis set =     -410.0812523980
 No wavefunction analysis requested
 Calculating analytic gradient of the SCF energy
 Gradient of SCF Energy
            1           2           3           4           5           6
    1  -0.0000622   0.0004661   0.0004959   0.0000575  -0.0001955  -0.0007618
    2   0.0004693  -0.0000657   0.0001512   0.0016394  -0.0008161  -0.0013781
    3   0.0000823  -0.0001413  -0.0002210   0.0001196  -0.0003776   0.0005381
 Max gradient component =       1.639E-03
 RMS gradient           =       6.286E-04
 Gradient time:  CPU 32.05 s  wall 5.43 s
 Geometry Optimization Parameters
   NAtoms,    NIC,     NZ,  NCons,   NDum,   NFix, NCnnct, MaxDiis
        6      25       0       0       0       0       0       0

 Cartesian Hessian Update
 Hessian updated using Powell/Murtagh-Sargent update
  Mixing factors:     0.997093 Powell                      0.002907 Murtagh-Sargent


** GEOMETRY OPTIMIZATION IN DELOCALIZED INTERNAL COORDINATES **
   Searching for a Transition State

   Optimization Cycle:   4

                       Coordinates (Angstroms)
     ATOM                X               Y               Z
      1  N         0.7038157286    1.2290828986    2.4655121980
      2  O         0.3667145429    2.1827015558    1.8375660266
      3  O         1.6656562797    1.0117545994    3.1197486181
      4  N         0.0843681963   -1.1150582780    3.2192942381
      5  O        -0.5863902417   -1.4354300888    4.1204988091
      6  O        -0.2891733757    0.2219384228    2.3376800002
   Point Group: c1    Number of degrees of freedom:    12


   Energy is   -410.081252398

 Hessian updated using Powell/Murtagh-Sargent update
  Mixing factors:     0.996951 Powell                      0.003049 Murtagh-Sargent

 12 Hessian modes will be used to form the next step
  Hessian Eigenvalues:
    -0.055138    0.006508    0.210402    0.232064    0.250000    0.250007
     0.251786    0.282161    0.425303    1.099468    1.137195    1.224301

 Transition state search - taking P-RFO step
 Searching for Lamda that Maximizes Along the Lowest mode
 Value Taken    Lamda =   0.00003577
 Searching for Lamda that Minimizes Along All other modes
 Value Taken    Lamda =  -0.00002040
 Step Taken.  Stepsize is  0.032909

                             Maximum     Tolerance    Cnvgd?
         Gradient           0.001397      0.000300      NO
         Displacement       0.021748      0.001200      NO
         Energy change     -0.005601      0.000001      NO


 New Cartesian Coordinates Obtained by Inverse Iteration

 Displacement from previous Coordinates is:  0.028973
 ----------------------------------------------------------------
             Standard Nuclear Orientation (Angstroms)
    I     Atom           X                Y                Z
 ----------------------------------------------------------------
    1      N       0.7059991783     1.2288795023     2.4620076957
    2      O       0.3680451376     2.1814310247     1.8327593012
    3      O       1.6648419578     1.0132146457     3.1209706743
    4      N       0.0871307989    -1.1144849526     3.2216149649
    5      O      -0.5884464878    -1.4416450082     4.1167166035
    6      O      -0.2925794548     0.2275938980     2.3462306503
 ----------------------------------------------------------------
 Nuclear Repulsion Energy =         230.44297307 hartrees
 There are       24 alpha and       22 beta electrons
 Applying Cartesian multipole field
    Component          Value
    ---------          -----
     (2,0,0)        1.00000E-11
     (0,2,0)        2.00000E-11
     (0,0,2)       -3.00000E-11
 Nucleus-field energy     =    -0.0000000358 hartrees
 Requested basis set is 6-311+G(2df,2pd)
 There are 48 shells and 204 basis functions
 A cutoff of  1.0D-11 yielded   1057 shell pairs
 There are     19584 function pairs (     25715 Cartesian)
 Smallest overlap matrix eigenvalue = 7.39E-04
 Guess MOs from SCF MO coefficient file

 -----------------------------------------------------------------------
  General SCF calculation program by
  Eric Jon Sundstrom, Paul Horn, Yuezhi Mao, Dmitri Zuev, Alec White,
  David Stuck, Shaama M.S., Shane Yost, Joonho Lee, David Small,
  Daniel Levine, Susi Lehtola, Hugh Burton, Evgeny Epifanovsky,
  Bang C. Huynh
 -----------------------------------------------------------------------
 Exchange:     0.2220 Hartree-Fock + 1.0000 wB97X-D + LR-HF
 Correlation:  1.0000 wB97X-D
 Using Euler-Maclaurin-Lebedev (75,302) quadrature formula
 Dispersion:   Grimme D
 using 6 threads for integral computing
 -------------------------------------------------------
 OpenMP Integral computing Module                
 Release: version 1.0, May 2013, Q-Chem Inc. Pittsburgh 
 -------------------------------------------------------
 using 6 threads for integral computing
 -------------------------------------------------------
 OpenMP Integral computing Module                
 Release: version 1.0, May 2013, Q-Chem Inc. Pittsburgh 
 -------------------------------------------------------
 A unrestricted SCF calculation will be
 performed using DIIS
 SCF converges when DIIS error is below 1.0e-08
 ---------------------------------------
  Cycle       Energy         DIIS error
 ---------------------------------------
    1    -410.0810680213      7.05e-05  
    2    -410.0812085728      1.46e-05  
    3    -410.0812203021      5.80e-06  
    4    -410.0812210270      6.58e-06  
    5    -410.0812218680      1.24e-06  
    6    -410.0812219929      6.48e-07  
    7    -410.0812220336      5.30e-07  
    8    -410.0812220485      2.47e-07  
    9    -410.0812220564      1.67e-07  
   10    -410.0812220597      8.92e-08  
   11    -410.0812220606      5.15e-08  
   12    -410.0812220610      2.95e-08  
   13    -410.0812220612      2.07e-08  
   14    -410.0812220612      8.69e-09  Convergence criterion met
 ---------------------------------------
 SCF time:   CPU 157.60s  wall 28.00s 
<S^2> =          2.018385152
 SCF   energy in the final basis set =     -410.0812220612
 Total energy in the final basis set =     -410.0812220612
 No wavefunction analysis requested
 Calculating analytic gradient of the SCF energy
 Gradient of SCF Energy
            1           2           3           4           5           6
    1   0.0015441  -0.0002559  -0.0002943   0.0003370  -0.0004306  -0.0009003
    2   0.0001412  -0.0000543   0.0000449   0.0019901  -0.0007593  -0.0013626
    3  -0.0019155   0.0004905   0.0005678  -0.0003824  -0.0002280   0.0014676
 Max gradient component =       1.990E-03
 RMS gradient           =       9.617E-04
 Gradient time:  CPU 37.48 s  wall 6.35 s
 Geometry Optimization Parameters
   NAtoms,    NIC,     NZ,  NCons,   NDum,   NFix, NCnnct, MaxDiis
        6      25       0       0       0       0       0       0

 Cartesian Hessian Update
 Hessian updated using Powell/Murtagh-Sargent update
  Mixing factors:     0.412934 Powell                      0.587066 Murtagh-Sargent


** GEOMETRY OPTIMIZATION IN DELOCALIZED INTERNAL COORDINATES **
   Searching for a Transition State

   Optimization Cycle:   5

                       Coordinates (Angstroms)
     ATOM                X               Y               Z
      1  N         0.7059991783    1.2288795023    2.4620076957
      2  O         0.3680451376    2.1814310247    1.8327593012
      3  O         1.6648419578    1.0132146457    3.1209706743
      4  N         0.0871307989   -1.1144849526    3.2216149649
      5  O        -0.5884464878   -1.4416450082    4.1167166035
      6  O        -0.2925794548    0.2275938980    2.3462306503
   Point Group: c1    Number of degrees of freedom:    12


   Energy is   -410.081222061

 Hessian updated using Powell/Murtagh-Sargent update
  Mixing factors:     0.771743 Powell                      0.228257 Murtagh-Sargent

 12 Hessian modes will be used to form the next step
  Hessian Eigenvalues:
    -0.010952   -0.000200    0.210906    0.245368    0.249837    0.250014
     0.256414    0.296510    0.428470    1.099725    1.137219    1.224790
**WARNING** Hessian does not have the desired local structure
**WARNING** Hessian does not have the desired local structure

 Transition state search - taking P-RFO step
 Searching for Lamda that Maximizes Along the Lowest mode
 Value Taken    Lamda =   0.00009676
 Searching for Lamda that Minimizes Along All other modes
 Value Taken    Lamda =  -0.00092949
 Calculated Step too Large.  Step scaled by  0.268063
 Step Taken.  Stepsize is  0.300000

                             Maximum     Tolerance    Cnvgd?
         Gradient           0.001785      0.000300      NO
         Displacement       0.176449      0.001200      NO
         Energy change      0.000030      0.000001      NO


 New Cartesian Coordinates Obtained by Inverse Iteration

 Displacement from previous Coordinates is:  0.342461
 ----------------------------------------------------------------
             Standard Nuclear Orientation (Angstroms)
    I     Atom           X                Y                Z
 ----------------------------------------------------------------
    1      N       0.7058336836     1.2137332679     2.4666700145
    2      O       0.3162240439     2.1914070379     1.9132321412
    3      O       1.6714094285     0.9846617383     3.1106770459
    4      N       0.0760805308    -1.1074186223     3.2089066725
    5      O      -0.5856394546    -1.3547339366     4.1405583060
    6      O      -0.2389171022     0.1673396247     2.2602557098
 ----------------------------------------------------------------
 Nuclear Repulsion Energy =         231.49421740 hartrees
 There are       24 alpha and       22 beta electrons
 Applying Cartesian multipole field
    Component          Value
    ---------          -----
     (2,0,0)        1.00000E-11
     (0,2,0)        2.00000E-11
     (0,0,2)       -3.00000E-11
 Nucleus-field energy     =    -0.0000000360 hartrees
 Requested basis set is 6-311+G(2df,2pd)
 There are 48 shells and 204 basis functions
 A cutoff of  1.0D-11 yielded   1061 shell pairs
 There are     19664 function pairs (     25811 Cartesian)
 Smallest overlap matrix eigenvalue = 6.87E-04
 Guess MOs from SCF MO coefficient file

 -----------------------------------------------------------------------
  General SCF calculation program by
  Eric Jon Sundstrom, Paul Horn, Yuezhi Mao, Dmitri Zuev, Alec White,
  David Stuck, Shaama M.S., Shane Yost, Joonho Lee, David Small,
  Daniel Levine, Susi Lehtola, Hugh Burton, Evgeny Epifanovsky,
  Bang C. Huynh
 -----------------------------------------------------------------------
 Exchange:     0.2220 Hartree-Fock + 1.0000 wB97X-D + LR-HF
 Correlation:  1.0000 wB97X-D
 Using Euler-Maclaurin-Lebedev (75,302) quadrature formula
 Dispersion:   Grimme D
 using 6 threads for integral computing
 -------------------------------------------------------
 OpenMP Integral computing Module                
 Release: version 1.0, May 2013, Q-Chem Inc. Pittsburgh 
 -------------------------------------------------------
 using 6 threads for integral computing
 -------------------------------------------------------
 OpenMP Integral computing Module                
 Release: version 1.0, May 2013, Q-Chem Inc. Pittsburgh 
 -------------------------------------------------------
 A unrestricted SCF calculation will be
 performed using DIIS
 SCF converges when DIIS error is below 1.0e-08
 ---------------------------------------
  Cycle       Energy         DIIS error
 ---------------------------------------
    1    -410.0650326108      7.13e-04  
    2    -410.0797748248      1.53e-04  
    3    -410.0809832513      8.97e-05  
    4    -410.0811240676      6.38e-05  
    5    -410.0812294085      1.51e-05  
    6    -410.0812420393      1.13e-05  
    7    -410.0812490470      4.19e-06  
    8    -410.0812510359      2.72e-06  
    9    -410.0812517155      1.79e-06  
   10    -410.0812521931      7.18e-07  
   11    -410.0812522856      4.47e-07  
   12    -410.0812523121      4.03e-07  
   13    -410.0812523219      1.42e-07  
   14    -410.0812523259      7.37e-08  
   15    -410.0812523266      2.81e-08  
   16    -410.0812523267      1.04e-08  
   17    -410.0812523267      4.76e-09  Convergence criterion met
 ---------------------------------------
 SCF time:   CPU 187.15s  wall 33.00s 
<S^2> =          2.017312265
 SCF   energy in the final basis set =     -410.0812523267
 Total energy in the final basis set =     -410.0812523267
 No wavefunction analysis requested
 Calculating analytic gradient of the SCF energy
 Gradient of SCF Energy
            1           2           3           4           5           6
    1   0.0021518  -0.0027501  -0.0005554  -0.0022445   0.0021641   0.0012340
    2   0.0013034  -0.0007999  -0.0024763  -0.0012481  -0.0006152   0.0038362
    3  -0.0024276   0.0006344   0.0009908   0.0063094  -0.0029480  -0.0025590
 Max gradient component =       6.309E-03
 RMS gradient           =       2.485E-03
 Gradient time:  CPU 35.94 s  wall 6.11 s
 Geometry Optimization Parameters
   NAtoms,    NIC,     NZ,  NCons,   NDum,   NFix, NCnnct, MaxDiis
        6      25       0       0       0       0       0       0

 Cartesian Hessian Update
 Hessian updated using Powell/Murtagh-Sargent update
  Mixing factors:     0.850902 Powell                      0.149098 Murtagh-Sargent


** GEOMETRY OPTIMIZATION IN DELOCALIZED INTERNAL COORDINATES **
   Searching for a Transition State

   Optimization Cycle:   6

                       Coordinates (Angstroms)
     ATOM                X               Y               Z
      1  N         0.7058336836    1.2137332679    2.4666700145
      2  O         0.3162240439    2.1914070379    1.9132321412
      3  O         1.6714094285    0.9846617383    3.1106770459
      4  N         0.0760805308   -1.1074186223    3.2089066725
      5  O        -0.5856394546   -1.3547339366    4.1405583060
      6  O        -0.2389171022    0.1673396247    2.2602557098
   Point Group: c1    Number of degrees of freedom:    12


   Energy is   -410.081252327

 Hessian updated using Powell/Murtagh-Sargent update
  Mixing factors:     0.974914 Powell                      0.025086 Murtagh-Sargent

 12 Hessian modes will be used to form the next step
  Hessian Eigenvalues:
    -0.011896    0.002581    0.214850    0.245400    0.249896    0.250014
     0.257907    0.296512    0.429162    1.099726    1.137239    1.225737

 Transition state search - taking P-RFO step
 Searching for Lamda that Maximizes Along the Lowest mode
 Value Taken    Lamda =   0.00040983
 Searching for Lamda that Minimizes Along All other modes
 Value Taken    Lamda =  -0.00029541
 Step Taken.  Stepsize is  0.231908

                             Maximum     Tolerance    Cnvgd?
         Gradient           0.005224      0.000300      NO
         Displacement       0.124296      0.001200      NO
         Energy change     -0.000030      0.000001      NO


 New Cartesian Coordinates Obtained by Inverse Iteration

 Displacement from previous Coordinates is:  0.296128
 ----------------------------------------------------------------
             Standard Nuclear Orientation (Angstroms)
    I     Atom           X                Y                Z
 ----------------------------------------------------------------
    1      N       0.7120040231     1.2262432144     2.4581515688
    2      O       0.3292405241     2.1933579769     1.8788378589
    3      O       1.6992544277     1.0185014119     3.0764499150
    4      N       0.1008941485    -1.0995991008     3.2638604257
    5      O      -0.6414609126    -1.4369937597     4.1012764023
    6      O      -0.2549410808     0.1934793673     2.3217237193
 ----------------------------------------------------------------
 Nuclear Repulsion Energy =         230.29941322 hartrees
 There are       24 alpha and       22 beta electrons
 Applying Cartesian multipole field
    Component          Value
    ---------          -----
     (2,0,0)        1.00000E-11
     (0,2,0)        2.00000E-11
     (0,0,2)       -3.00000E-11
 Nucleus-field energy     =    -0.0000000357 hartrees
 Requested basis set is 6-311+G(2df,2pd)
 There are 48 shells and 204 basis functions
 A cutoff of  1.0D-11 yielded   1055 shell pairs
 There are     19606 function pairs (     25743 Cartesian)
 Smallest overlap matrix eigenvalue = 7.43E-04
 Guess MOs from SCF MO coefficient file

 -----------------------------------------------------------------------
  General SCF calculation program by
  Eric Jon Sundstrom, Paul Horn, Yuezhi Mao, Dmitri Zuev, Alec White,
  David Stuck, Shaama M.S., Shane Yost, Joonho Lee, David Small,
  Daniel Levine, Susi Lehtola, Hugh Burton, Evgeny Epifanovsky,
  Bang C. Huynh
 -----------------------------------------------------------------------
 Exchange:     0.2220 Hartree-Fock + 1.0000 wB97X-D + LR-HF
 Correlation:  1.0000 wB97X-D
 Using Euler-Maclaurin-Lebedev (75,302) quadrature formula
 Dispersion:   Grimme D
 using 6 threads for integral computing
 -------------------------------------------------------
 OpenMP Integral computing Module                
 Release: version 1.0, May 2013, Q-Chem Inc. Pittsburgh 
 -------------------------------------------------------
 using 6 threads for integral computing
 -------------------------------------------------------
 OpenMP Integral computing Module                
 Release: version 1.0, May 2013, Q-Chem Inc. Pittsburgh 
 -------------------------------------------------------
 A unrestricted SCF calculation will be
 performed using DIIS
 SCF converges when DIIS error is below 1.0e-08
 ---------------------------------------
  Cycle       Energy         DIIS error
 ---------------------------------------
    1    -410.0633244235      8.07e-04  
    2    -410.0795845926      1.53e-04  
    3    -410.0807975455      6.40e-05  
    4    -410.0808946010      6.57e-05  
    5    -410.0809924237      1.43e-05  
    6    -410.0810125178      1.25e-05  
    7    -410.0810211847      5.82e-06  
    8    -410.0810257979      3.41e-06  
    9    -410.0810277401      2.67e-06  
   10    -410.0810286705      1.11e-06  
   11    -410.0810288110      7.20e-07  
   12    -410.0810288607      4.13e-07  
   13    -410.0810288795      1.85e-07  
   14    -410.0810288858      7.78e-08  
   15    -410.0810288867      2.81e-08  
   16    -410.0810288868      1.41e-08  
   17    -410.0810288869      8.07e-09  Convergence criterion met
 ---------------------------------------
 SCF time:   CPU 184.67s  wall 33.00s 
<S^2> =          2.018126412
 SCF   energy in the final basis set =     -410.0810288869
 Total energy in the final basis set =     -410.0810288869
 No wavefunction analysis requested
 Calculating analytic gradient of the SCF energy
 Gradient of SCF Energy
            1           2           3           4           5           6
    1   0.0003818   0.0007697   0.0005539  -0.0005687  -0.0000894  -0.0010472
    2  -0.0016715   0.0010726   0.0017565   0.0016068  -0.0008296  -0.0019348
    3  -0.0017934   0.0012822  -0.0000540   0.0008878  -0.0005633   0.0002406
 Max gradient component =       1.935E-03
 RMS gradient           =       1.119E-03
 Gradient time:  CPU 36.45 s  wall 6.21 s
 Geometry Optimization Parameters
   NAtoms,    NIC,     NZ,  NCons,   NDum,   NFix, NCnnct, MaxDiis
        6      25       0       0       0       0       0       0

 Cartesian Hessian Update
 Hessian updated using Powell/Murtagh-Sargent update
  Mixing factors:     0.604010 Powell                      0.395990 Murtagh-Sargent


** GEOMETRY OPTIMIZATION IN DELOCALIZED INTERNAL COORDINATES **
   Searching for a Transition State

   Optimization Cycle:   7

                       Coordinates (Angstroms)
     ATOM                X               Y               Z
      1  N         0.7120040231    1.2262432144    2.4581515688
      2  O         0.3292405241    2.1933579769    1.8788378589
      3  O         1.6992544277    1.0185014119    3.0764499150
      4  N         0.1008941485   -1.0995991008    3.2638604257
      5  O        -0.6414609126   -1.4369937597    4.1012764023
      6  O        -0.2549410808    0.1934793673    2.3217237193
   Point Group: c1    Number of degrees of freedom:    12


   Energy is   -410.081028887

 Hessian updated using Powell/Murtagh-Sargent update
  Mixing factors:     0.927021 Powell                      0.072979 Murtagh-Sargent

 12 Hessian modes will be used to form the next step
  Hessian Eigenvalues:
    -0.004230   -0.001244    0.215519    0.246226    0.249972    0.250170
     0.259464    0.298406    0.431073    1.099726    1.137243    1.225730
**WARNING** Hessian does not have the desired local structure
**WARNING** Hessian does not have the desired local structure

 Transition state search - taking P-RFO step
 Searching for Lamda that Maximizes Along the Lowest mode
 Value Taken    Lamda =   0.00000306
 Searching for Lamda that Minimizes Along All other modes
 Value Taken    Lamda =  -0.00293435
 Calculated Step too Large.  Step scaled by  0.230083
 Step Taken.  Stepsize is  0.300000

                             Maximum     Tolerance    Cnvgd?
         Gradient           0.002482      0.000300      NO
         Displacement       0.152323      0.001200      NO
         Energy change      0.000223      0.000001      NO


 New Cartesian Coordinates Obtained by Inverse Iteration

 Displacement from previous Coordinates is:  0.433462
 ----------------------------------------------------------------
             Standard Nuclear Orientation (Angstroms)
    I     Atom           X                Y                Z
 ----------------------------------------------------------------
    1      N       0.6955719141     1.2217308789     2.4738912103
    2      O       0.3884043415     2.1753614934     1.8320056906
    3      O       1.6335646450     0.9956609680     3.1583830297
    4      N       0.0560120373    -1.1296508476     3.1661099394
    5      O      -0.5219415687    -1.3924241550     4.1475724397
    6      O      -0.3066202392     0.2243107723     2.3223375804
 ----------------------------------------------------------------
 Nuclear Repulsion Energy =         231.13119985 hartrees
 There are       24 alpha and       22 beta electrons
 Applying Cartesian multipole field
    Component          Value
    ---------          -----
     (2,0,0)        1.00000E-11
     (0,2,0)        2.00000E-11
     (0,0,2)       -3.00000E-11
 Nucleus-field energy     =    -0.0000000361 hartrees
 Requested basis set is 6-311+G(2df,2pd)
 There are 48 shells and 204 basis functions
 A cutoff of  1.0D-11 yielded   1057 shell pairs
 There are     19616 function pairs (     25755 Cartesian)
 Smallest overlap matrix eigenvalue = 6.84E-04
 Guess MOs from SCF MO coefficient file

 -----------------------------------------------------------------------
  General SCF calculation program by
  Eric Jon Sundstrom, Paul Horn, Yuezhi Mao, Dmitri Zuev, Alec White,
  David Stuck, Shaama M.S., Shane Yost, Joonho Lee, David Small,
  Daniel Levine, Susi Lehtola, Hugh Burton, Evgeny Epifanovsky,
  Bang C. Huynh
 -----------------------------------------------------------------------
 Exchange:     0.2220 Hartree-Fock + 1.0000 wB97X-D + LR-HF
 Correlation:  1.0000 wB97X-D
 Using Euler-Maclaurin-Lebedev (75,302) quadrature formula
 Dispersion:   Grimme D
 using 6 threads for integral computing
 -------------------------------------------------------
 OpenMP Integral computing Module                
 Release: version 1.0, May 2013, Q-Chem Inc. Pittsburgh 
 -------------------------------------------------------
 using 6 threads for integral computing
 -------------------------------------------------------
 OpenMP Integral computing Module                
 Release: version 1.0, May 2013, Q-Chem Inc. Pittsburgh 
 -------------------------------------------------------
 A unrestricted SCF calculation will be
 performed using DIIS
 SCF converges when DIIS error is below 1.0e-08
 ---------------------------------------
  Cycle       Energy         DIIS error
 ---------------------------------------
    1    -410.0362771769      1.30e-03  
    2    -410.0777621463      2.56e-04  
    3    -410.0804076593      1.90e-04  
    4    -410.0809623328      9.94e-05  
    5    -410.0812806808      2.43e-05  
    6    -410.0813682089      1.80e-05  
    7    -410.0814003970      1.36e-05  
    8    -410.0814231219      6.52e-06  
    9    -410.0814314493      4.73e-06  
   10    -410.0814342318      1.97e-06  
   11    -410.0814345327      9.39e-07  
   12    -410.0814346333      5.36e-07  
   13    -410.0814346534      3.08e-07  
   14    -410.0814346629      1.16e-07  
   15    -410.0814346649      5.71e-08  
   16    -410.0814346656      3.01e-08  
   17    -410.0814346658      1.61e-08  
   18    -410.0814346659      6.03e-09  Convergence criterion met
 ---------------------------------------
 SCF time:   CPU 192.79s  wall 34.00s 
<S^2> =          2.018024208
 SCF   energy in the final basis set =     -410.0814346659
 Total energy in the final basis set =     -410.0814346659
 No wavefunction analysis requested
 Calculating analytic gradient of the SCF energy
 Gradient of SCF Energy
            1           2           3           4           5           6
    1  -0.0004544   0.0006048  -0.0000105   0.0003247   0.0001988  -0.0006635
    2   0.0004716  -0.0006642   0.0001813  -0.0011451  -0.0001558   0.0013122
    3   0.0009921  -0.0003886  -0.0007241   0.0016152  -0.0011292  -0.0003654
 Max gradient component =       1.615E-03
 RMS gradient           =       7.670E-04
 Gradient time:  CPU 34.52 s  wall 5.91 s
 Geometry Optimization Parameters
   NAtoms,    NIC,     NZ,  NCons,   NDum,   NFix, NCnnct, MaxDiis
        6      25       0       0       0       0       0       0

 Cartesian Hessian Update
 Hessian updated using Powell/Murtagh-Sargent update
  Mixing factors:     0.484861 Powell                      0.515139 Murtagh-Sargent


** GEOMETRY OPTIMIZATION IN DELOCALIZED INTERNAL COORDINATES **
   Searching for a Transition State

   Optimization Cycle:   8

                       Coordinates (Angstroms)
     ATOM                X               Y               Z
      1  N         0.6955719141    1.2217308789    2.4738912103
      2  O         0.3884043415    2.1753614934    1.8320056906
      3  O         1.6335646450    0.9956609680    3.1583830297
      4  N         0.0560120373   -1.1296508476    3.1661099394
      5  O        -0.5219415687   -1.3924241550    4.1475724397
      6  O        -0.3066202392    0.2243107723    2.3223375804
   Point Group: c1    Number of degrees of freedom:    12


   Energy is   -410.081434666

 Hessian updated using Powell/Murtagh-Sargent update
  Mixing factors:     0.821367 Powell                      0.178633 Murtagh-Sargent

 12 Hessian modes will be used to form the next step
  Hessian Eigenvalues:
    -0.006060    0.007917    0.215739    0.246227    0.249977    0.250178
     0.259480    0.303134    0.432300    1.099800    1.137353    1.225960

 Transition state search - taking P-RFO step
 Searching for Lamda that Maximizes Along the Lowest mode
 Value Taken    Lamda =   0.00035205
 Searching for Lamda that Minimizes Along All other modes
 Value Taken    Lamda =  -0.00002981
 Step Taken.  Stepsize is  0.236722

                             Maximum     Tolerance    Cnvgd?
         Gradient           0.001517      0.000300      NO
         Displacement       0.136889      0.001200      NO
         Energy change     -0.000406      0.000001      NO


 New Cartesian Coordinates Obtained by Inverse Iteration

 Displacement from previous Coordinates is:  0.288650
 ----------------------------------------------------------------
             Standard Nuclear Orientation (Angstroms)
    I     Atom           X                Y                Z
 ----------------------------------------------------------------
    1      N       0.7053107765     1.2348592269     2.4620481190
    2      O       0.3822352801     2.1735278387     1.8032374385
    3      O       1.6590893880     1.0156093149     3.1275645890
    4      N       0.0935814818    -1.1178435248     3.2245255851
    5      O      -0.5867581857    -1.4661646335     4.1070484492
    6      O      -0.3084676108     0.2550008877     2.3758757091
 ----------------------------------------------------------------
 Nuclear Repulsion Energy =         230.23159425 hartrees
 There are       24 alpha and       22 beta electrons
 Applying Cartesian multipole field
    Component          Value
    ---------          -----
     (2,0,0)        1.00000E-11
     (0,2,0)        2.00000E-11
     (0,0,2)       -3.00000E-11
 Nucleus-field energy     =    -0.0000000358 hartrees
 Requested basis set is 6-311+G(2df,2pd)
 There are 48 shells and 204 basis functions
 A cutoff of  1.0D-11 yielded   1055 shell pairs
 There are     19530 function pairs (     25609 Cartesian)
 Smallest overlap matrix eigenvalue = 7.46E-04
 Guess MOs from SCF MO coefficient file

 -----------------------------------------------------------------------
  General SCF calculation program by
  Eric Jon Sundstrom, Paul Horn, Yuezhi Mao, Dmitri Zuev, Alec White,
  David Stuck, Shaama M.S., Shane Yost, Joonho Lee, David Small,
  Daniel Levine, Susi Lehtola, Hugh Burton, Evgeny Epifanovsky,
  Bang C. Huynh
 -----------------------------------------------------------------------
 Exchange:     0.2220 Hartree-Fock + 1.0000 wB97X-D + LR-HF
 Correlation:  1.0000 wB97X-D
 Using Euler-Maclaurin-Lebedev (75,302) quadrature formula
 Dispersion:   Grimme D
 using 6 threads for integral computing
 -------------------------------------------------------
 OpenMP Integral computing Module                
 Release: version 1.0, May 2013, Q-Chem Inc. Pittsburgh 
 -------------------------------------------------------
 using 6 threads for integral computing
 -------------------------------------------------------
 OpenMP Integral computing Module                
 Release: version 1.0, May 2013, Q-Chem Inc. Pittsburgh 
 -------------------------------------------------------
 A unrestricted SCF calculation will be
 performed using DIIS
 SCF converges when DIIS error is below 1.0e-08
 ---------------------------------------
  Cycle       Energy         DIIS error
 ---------------------------------------
    1    -410.0614785234      8.55e-04  
    2    -410.0795117560      1.60e-04  
    3    -410.0808776294      6.30e-05  
    4    -410.0810055925      6.40e-05  
    5    -410.0811104390      1.60e-05  
    6    -410.0811428740      1.23e-05  
    7    -410.0811546366      7.35e-06  
    8    -410.0811618208      4.28e-06  
    9    -410.0811651913      3.12e-06  
   10    -410.0811666258      1.38e-06  
   11    -410.0811669063      8.35e-07  
   12    -410.0811670223      6.07e-07  
   13    -410.0811670551      3.12e-07  
   14    -410.0811670692      9.98e-08  
   15    -410.0811670708      4.51e-08  
   16    -410.0811670712      2.31e-08  
   17    -410.0811670713      1.29e-08  
   18    -410.0811670714      6.30e-09  Convergence criterion met
 ---------------------------------------
 SCF time:   CPU 195.51s  wall 34.00s 
<S^2> =          2.018971109
 SCF   energy in the final basis set =     -410.0811670714
 Total energy in the final basis set =     -410.0811670714
 No wavefunction analysis requested
 Calculating analytic gradient of the SCF energy
 Gradient of SCF Energy
            1           2           3           4           5           6
    1   0.0025920  -0.0015287  -0.0008877   0.0017598  -0.0018441  -0.0000913
    2   0.0027926  -0.0012639  -0.0022275   0.0049298  -0.0009382  -0.0032929
    3  -0.0012525  -0.0005779   0.0010900  -0.0040276   0.0012903   0.0034776
 Max gradient component =       4.930E-03
 RMS gradient           =       2.355E-03
 Gradient time:  CPU 37.82 s  wall 6.41 s
 Geometry Optimization Parameters
   NAtoms,    NIC,     NZ,  NCons,   NDum,   NFix, NCnnct, MaxDiis
        6      25       0       0       0       0       0       0

 Cartesian Hessian Update
 Hessian updated using Powell/Murtagh-Sargent update
  Mixing factors:     0.943720 Powell                      0.056280 Murtagh-Sargent


** GEOMETRY OPTIMIZATION IN DELOCALIZED INTERNAL COORDINATES **
   Searching for a Transition State

   Optimization Cycle:   9

                       Coordinates (Angstroms)
     ATOM                X               Y               Z
      1  N         0.7053107765    1.2348592269    2.4620481190
      2  O         0.3822352801    2.1735278387    1.8032374385
      3  O         1.6590893880    1.0156093149    3.1275645890
      4  N         0.0935814818   -1.1178435248    3.2245255851
      5  O        -0.5867581857   -1.4661646335    4.1070484492
      6  O        -0.3084676108    0.2550008877    2.3758757091
   Point Group: c1    Number of degrees of freedom:    12


   Energy is   -410.081167071

 Hessian updated using Powell/Murtagh-Sargent update
  Mixing factors:     0.992219 Powell                      0.007781 Murtagh-Sargent

 12 Hessian modes will be used to form the next step
  Hessian Eigenvalues:
    -0.007831    0.007707    0.217688    0.247254    0.249981    0.250662
     0.263018    0.303057    0.432302    1.099801    1.137364    1.226399

 Transition state search - taking P-RFO step
 Searching for Lamda that Maximizes Along the Lowest mode
 Value Taken    Lamda =   0.00000604
 Searching for Lamda that Minimizes Along All other modes
 Value Taken    Lamda =  -0.00020322
 Step Taken.  Stepsize is  0.051870

                             Maximum     Tolerance    Cnvgd?
         Gradient           0.004113      0.000300      NO
         Displacement       0.027991      0.001200      NO
         Energy change      0.000268      0.000001      NO


 New Cartesian Coordinates Obtained by Inverse Iteration

 Displacement from previous Coordinates is:  0.059300
 ----------------------------------------------------------------
             Standard Nuclear Orientation (Angstroms)
    I     Atom           X                Y                Z
 ----------------------------------------------------------------
    1      N       0.7057849179     1.2346761821     2.4610339627
    2      O       0.3780375025     2.1809326512     1.8158023289
    3      O       1.6661460749     1.0235677416     3.1193196787
    4      N       0.0888538267    -1.1259197712     3.2288564291
    5      O      -0.5938529214    -1.4630589036     4.1132357210
    6      O      -0.2999782707     0.2447912098     2.3620517697
 ----------------------------------------------------------------
 Nuclear Repulsion Energy =         229.88707856 hartrees
 There are       24 alpha and       22 beta electrons
 Applying Cartesian multipole field
    Component          Value
    ---------          -----
     (2,0,0)        1.00000E-11
     (0,2,0)        2.00000E-11
     (0,0,2)       -3.00000E-11
 Nucleus-field energy     =    -0.0000000358 hartrees
 Requested basis set is 6-311+G(2df,2pd)
 There are 48 shells and 204 basis functions
 A cutoff of  1.0D-11 yielded   1055 shell pairs
 There are     19530 function pairs (     25609 Cartesian)
 Smallest overlap matrix eigenvalue = 7.48E-04
 Guess MOs from SCF MO coefficient file

 -----------------------------------------------------------------------
  General SCF calculation program by
  Eric Jon Sundstrom, Paul Horn, Yuezhi Mao, Dmitri Zuev, Alec White,
  David Stuck, Shaama M.S., Shane Yost, Joonho Lee, David Small,
  Daniel Levine, Susi Lehtola, Hugh Burton, Evgeny Epifanovsky,
  Bang C. Huynh
 -----------------------------------------------------------------------
 Exchange:     0.2220 Hartree-Fock + 1.0000 wB97X-D + LR-HF
 Correlation:  1.0000 wB97X-D
 Using Euler-Maclaurin-Lebedev (75,302) quadrature formula
 Dispersion:   Grimme D
 using 6 threads for integral computing
 -------------------------------------------------------
 OpenMP Integral computing Module                
 Release: version 1.0, May 2013, Q-Chem Inc. Pittsburgh 
 -------------------------------------------------------
 using 6 threads for integral computing
 -------------------------------------------------------
 OpenMP Integral computing Module                
 Release: version 1.0, May 2013, Q-Chem Inc. Pittsburgh 
 -------------------------------------------------------
 A unrestricted SCF calculation will be
 performed using DIIS
 SCF converges when DIIS error is below 1.0e-08
 ---------------------------------------
  Cycle       Energy         DIIS error
 ---------------------------------------
    1    -410.0808326063      1.24e-04  
    2    -410.0812665070      2.70e-05  
    3    -410.0812991275      1.97e-05  
    4    -410.0813054652      1.08e-05  
    5    -410.0813088588      3.24e-06  
    6    -410.0813095296      2.19e-06  
    7    -410.0813099012      1.04e-06  
    8    -410.0813100348      6.69e-07  
    9    -410.0813100615      3.72e-07  
   10    -410.0813100767      1.73e-07  
   11    -410.0813100796      1.00e-07  
   12    -410.0813100808      7.31e-08  
   13    -410.0813100814      3.79e-08  
   14    -410.0813100818      2.11e-08  
   15    -410.0813100819      9.15e-09  Convergence criterion met
 ---------------------------------------
 SCF time:   CPU 159.95s  wall 28.00s 
<S^2> =          2.018942395
 SCF   energy in the final basis set =     -410.0813100819
 Total energy in the final basis set =     -410.0813100819
 No wavefunction analysis requested
 Calculating analytic gradient of the SCF energy
 Gradient of SCF Energy
            1           2           3           4           5           6
    1   0.0011282   0.0008342  -0.0000840   0.0013793  -0.0021650  -0.0010927
    2   0.0007715  -0.0003969   0.0007401   0.0057938  -0.0012376  -0.0056708
    3  -0.0009286   0.0004689  -0.0000646  -0.0049727   0.0018236   0.0036733
 Max gradient component =       5.794E-03
 RMS gradient           =       2.592E-03
 Gradient time:  CPU 32.66 s  wall 5.66 s
 Geometry Optimization Parameters
   NAtoms,    NIC,     NZ,  NCons,   NDum,   NFix, NCnnct, MaxDiis
        6      25       0       0       0       0       0       0

 Cartesian Hessian Update
 Hessian updated using Powell/Murtagh-Sargent update
  Mixing factors:     0.620419 Powell                      0.379581 Murtagh-Sargent


** GEOMETRY OPTIMIZATION IN DELOCALIZED INTERNAL COORDINATES **
   Searching for a Transition State

   Optimization Cycle:  10

                       Coordinates (Angstroms)
     ATOM                X               Y               Z
      1  N         0.7057849179    1.2346761821    2.4610339627
      2  O         0.3780375025    2.1809326512    1.8158023289
      3  O         1.6661460749    1.0235677416    3.1193196787
      4  N         0.0888538267   -1.1259197712    3.2288564291
      5  O        -0.5938529214   -1.4630589036    4.1132357210
      6  O        -0.2999782707    0.2447912098    2.3620517697
   Point Group: c1    Number of degrees of freedom:    12


   Energy is   -410.081310082

 Hessian updated using Powell/Murtagh-Sargent update
  Mixing factors:     0.941304 Powell                      0.058696 Murtagh-Sargent

 12 Hessian modes will be used to form the next step
  Hessian Eigenvalues:
    -0.009276   -0.001072    0.156254    0.247662    0.249970    0.250619
     0.270430    0.307578    0.435410    1.099425    1.137391    1.219226
**WARNING** Hessian does not have the desired local structure
**WARNING** Hessian does not have the desired local structure

 Transition state search - taking P-RFO step
 Searching for Lamda that Maximizes Along the Lowest mode
 Value Taken    Lamda =   0.00066157
 Searching for Lamda that Minimizes Along All other modes
 Value Taken    Lamda =  -0.00188227
 Calculated Step too Large.  Step scaled by  0.204062
 Step Taken.  Stepsize is  0.300000

                             Maximum     Tolerance    Cnvgd?
         Gradient           0.004372      0.000300      NO
         Displacement       0.159330      0.001200      NO
         Energy change     -0.000143      0.000001      NO


 New Cartesian Coordinates Obtained by Inverse Iteration

 Displacement from previous Coordinates is:  0.421657
 ----------------------------------------------------------------
             Standard Nuclear Orientation (Angstroms)
    I     Atom           X                Y                Z
 ----------------------------------------------------------------
    1      N       0.7201230192     1.2492296727     2.4445907581
    2      O       0.3419061282     2.1994467963     1.8311054806
    3      O       1.7218382924     1.0536450799     3.0436116221
    4      N       0.1206597065    -1.1089981484     3.3489253396
    5      O      -0.6960091698    -1.5432786408     4.0553552193
    6      O      -0.2635268464     0.2449443500     2.3767114703
 ----------------------------------------------------------------
 Nuclear Repulsion Energy =         228.26884939 hartrees
 There are       24 alpha and       22 beta electrons
 Applying Cartesian multipole field
    Component          Value
    ---------          -----
     (2,0,0)        1.00000E-11
     (0,2,0)        2.00000E-11
     (0,0,2)       -3.00000E-11
 Nucleus-field energy     =    -0.0000000353 hartrees
 Requested basis set is 6-311+G(2df,2pd)
 There are 48 shells and 204 basis functions
 A cutoff of  1.0D-11 yielded   1046 shell pairs
 There are     19414 function pairs (     25461 Cartesian)
 Smallest overlap matrix eigenvalue = 7.58E-04
 Guess MOs from SCF MO coefficient file

 -----------------------------------------------------------------------
  General SCF calculation program by
  Eric Jon Sundstrom, Paul Horn, Yuezhi Mao, Dmitri Zuev, Alec White,
  David Stuck, Shaama M.S., Shane Yost, Joonho Lee, David Small,
  Daniel Levine, Susi Lehtola, Hugh Burton, Evgeny Epifanovsky,
  Bang C. Huynh
 -----------------------------------------------------------------------
 Exchange:     0.2220 Hartree-Fock + 1.0000 wB97X-D + LR-HF
 Correlation:  1.0000 wB97X-D
 Using Euler-Maclaurin-Lebedev (75,302) quadrature formula
 Dispersion:   Grimme D
 using 6 threads for integral computing
 -------------------------------------------------------
 OpenMP Integral computing Module                
 Release: version 1.0, May 2013, Q-Chem Inc. Pittsburgh 
 -------------------------------------------------------
 using 6 threads for integral computing
 -------------------------------------------------------
 OpenMP Integral computing Module                
 Release: version 1.0, May 2013, Q-Chem Inc. Pittsburgh 
 -------------------------------------------------------
 A unrestricted SCF calculation will be
 performed using DIIS
 SCF converges when DIIS error is below 1.0e-08
 ---------------------------------------
  Cycle       Energy         DIIS error
 ---------------------------------------
    1    -410.0373638509      1.29e-03  
    2    -410.0779973413      2.44e-04  
    3    -410.0809816145      1.16e-04  
    4    -410.0813403460      9.73e-05  
    5    -410.0816496074      2.88e-05  
    6    -410.0817710640      2.36e-05  
    7    -410.0818295563      1.44e-05  
    8    -410.0818742193      9.64e-06  
    9    -410.0818908613      7.72e-06  
   10    -410.0819040763      2.78e-06  
   11    -410.0819066824      1.99e-06  
   12    -410.0819072608      1.43e-06  
   13    -410.0819074841      4.44e-07  
   14    -410.0819075210      1.74e-07  
   15    -410.0819075256      1.01e-07  
   16    -410.0819075273      5.24e-08  
   17    -410.0819075277      2.85e-08  
   18    -410.0819075279      1.45e-08  
   19    -410.0819075280      7.93e-09  Convergence criterion met
 ---------------------------------------
 SCF time:   CPU 207.70s  wall 38.00s 
<S^2> =          2.018886999
 SCF   energy in the final basis set =     -410.0819075280
 Total energy in the final basis set =     -410.0819075280
 No wavefunction analysis requested
 Calculating analytic gradient of the SCF energy
 Gradient of SCF Energy
            1           2           3           4           5           6
    1   0.0021214   0.0019964   0.0006146   0.0018769  -0.0051081  -0.0015012
    2   0.0022068  -0.0003780   0.0020847   0.0150438  -0.0031445  -0.0158128
    3  -0.0011220   0.0015582  -0.0004552  -0.0120935   0.0039198   0.0081927
 Max gradient component =       1.581E-02
 RMS gradient           =       6.536E-03
 Gradient time:  CPU 34.06 s  wall 5.76 s
 Geometry Optimization Parameters
   NAtoms,    NIC,     NZ,  NCons,   NDum,   NFix, NCnnct, MaxDiis
        6      25       0       0       0       0       0       0

 Cartesian Hessian Update
 Hessian updated using Powell/Murtagh-Sargent update
  Mixing factors:     0.977220 Powell                      0.022780 Murtagh-Sargent


** GEOMETRY OPTIMIZATION IN DELOCALIZED INTERNAL COORDINATES **
   Searching for a Transition State

   Optimization Cycle:  11

                       Coordinates (Angstroms)
     ATOM                X               Y               Z
      1  N         0.7201230192    1.2492296727    2.4445907581
      2  O         0.3419061282    2.1994467963    1.8311054806
      3  O         1.7218382924    1.0536450799    3.0436116221
      4  N         0.1206597065   -1.1089981484    3.3489253396
      5  O        -0.6960091698   -1.5432786408    4.0553552193
      6  O        -0.2635268464    0.2449443500    2.3767114703
   Point Group: c1    Number of degrees of freedom:    12


   Energy is   -410.081907528

 Hessian updated using Powell/Murtagh-Sargent update
  Mixing factors:     0.975913 Powell                      0.024087 Murtagh-Sargent

 12 Hessian modes will be used to form the next step
  Hessian Eigenvalues:
    -0.016411   -0.006392    0.157280    0.247661    0.249970    0.250618
     0.270390    0.307463    0.434941    1.099384    1.137391    1.218504
**WARNING** Hessian does not have the desired local structure
**WARNING** Hessian does not have the desired local structure

 Transition state search - taking P-RFO step
 Searching for Lamda that Maximizes Along the Lowest mode
 Value Taken    Lamda =   0.00265311
 Searching for Lamda that Minimizes Along All other modes
 Value Taken    Lamda =  -0.00641904
 Calculated Step too Large.  Step scaled by  0.021748
 Step Taken.  Stepsize is  0.300000

                             Maximum     Tolerance    Cnvgd?
         Gradient           0.009701      0.000300      NO
         Displacement       0.151666      0.001200      NO
         Energy change     -0.000597      0.000001      NO


 New Cartesian Coordinates Obtained by Inverse Iteration

 Displacement from previous Coordinates is:  0.362327
 ----------------------------------------------------------------
             Standard Nuclear Orientation (Angstroms)
    I     Atom           X                Y                Z
 ----------------------------------------------------------------
    1      N       0.7154770788     1.2373047410     2.4508283854
    2      O       0.3161224016     2.2087609260     1.8873315125
    3      O       1.6995001681     1.0228604156     3.0725912633
    4      N       0.0998955344    -1.1318370881     3.2874895118
    5      O      -0.6549340017    -1.4456435397     4.1151700454
    6      O      -0.2310700513     0.2035436551     2.2868891717
 ----------------------------------------------------------------
 Nuclear Repulsion Energy =         229.06930343 hartrees
 There are       24 alpha and       22 beta electrons
 Applying Cartesian multipole field
    Component          Value
    ---------          -----
     (2,0,0)        1.00000E-11
     (0,2,0)        2.00000E-11
     (0,0,2)       -3.00000E-11
 Nucleus-field energy     =    -0.0000000356 hartrees
 Requested basis set is 6-311+G(2df,2pd)
 There are 48 shells and 204 basis functions
 A cutoff of  1.0D-11 yielded   1049 shell pairs
 There are     19474 function pairs (     25545 Cartesian)
 Smallest overlap matrix eigenvalue = 7.57E-04
 Guess MOs from SCF MO coefficient file

 -----------------------------------------------------------------------
  General SCF calculation program by
  Eric Jon Sundstrom, Paul Horn, Yuezhi Mao, Dmitri Zuev, Alec White,
  David Stuck, Shaama M.S., Shane Yost, Joonho Lee, David Small,
  Daniel Levine, Susi Lehtola, Hugh Burton, Evgeny Epifanovsky,
  Bang C. Huynh
 -----------------------------------------------------------------------
 Exchange:     0.2220 Hartree-Fock + 1.0000 wB97X-D + LR-HF
 Correlation:  1.0000 wB97X-D
 Using Euler-Maclaurin-Lebedev (75,302) quadrature formula
 Dispersion:   Grimme D
 using 6 threads for integral computing
 -------------------------------------------------------
 OpenMP Integral computing Module                
 Release: version 1.0, May 2013, Q-Chem Inc. Pittsburgh 
 -------------------------------------------------------
 using 6 threads for integral computing
 -------------------------------------------------------
 OpenMP Integral computing Module                
 Release: version 1.0, May 2013, Q-Chem Inc. Pittsburgh 
 -------------------------------------------------------
 A unrestricted SCF calculation will be
 performed using DIIS
 SCF converges when DIIS error is below 1.0e-08
 ---------------------------------------
  Cycle       Energy         DIIS error
 ---------------------------------------
    1    -410.0546953240      9.93e-04  
    2    -410.0796871017      1.90e-04  
    3    -410.0815625324      7.51e-05  
    4    -410.0817045979      7.53e-05  
    5    -410.0818323389      1.48e-05  
    6    -410.0818575163      1.05e-05  
    7    -410.0818653287      7.11e-06  
    8    -410.0818715652      4.50e-06  
    9    -410.0818762064      3.67e-06  
   10    -410.0818796437      1.31e-06  
   11    -410.0818800980      5.87e-07  
   12    -410.0818801686      2.99e-07  
   13    -410.0818801801      1.88e-07  
   14    -410.0818801834      1.41e-07  
   15    -410.0818801845      4.54e-08  
   16    -410.0818801849      2.25e-08  
   17    -410.0818801850      1.47e-08  
   18    -410.0818801851      7.54e-09  Convergence criterion met
 ---------------------------------------
 SCF time:   CPU 194.18s  wall 33.00s 
<S^2> =          2.018561911
 SCF   energy in the final basis set =     -410.0818801851
 Total energy in the final basis set =     -410.0818801851
 No wavefunction analysis requested
 Calculating analytic gradient of the SCF energy
 Gradient of SCF Energy
            1           2           3           4           5           6
    1   0.0041854  -0.0017539   0.0000612   0.0008610  -0.0032767  -0.0000770
    2   0.0051121  -0.0010428  -0.0021116   0.0128573  -0.0019526  -0.0128625
    3  -0.0021472   0.0007928   0.0012986  -0.0100176   0.0030869   0.0069864
 Max gradient component =       1.286E-02
 RMS gradient           =       5.597E-03
 Gradient time:  CPU 31.46 s  wall 5.27 s
 Geometry Optimization Parameters
   NAtoms,    NIC,     NZ,  NCons,   NDum,   NFix, NCnnct, MaxDiis
        6      25       0       0       0       0       0       0

 Cartesian Hessian Update
 Hessian updated using Powell/Murtagh-Sargent update
  Mixing factors:     0.882655 Powell                      0.117345 Murtagh-Sargent


** GEOMETRY OPTIMIZATION IN DELOCALIZED INTERNAL COORDINATES **
   Searching for a Transition State

   Optimization Cycle:  12

                       Coordinates (Angstroms)
     ATOM                X               Y               Z
      1  N         0.7154770788    1.2373047410    2.4508283854
      2  O         0.3161224016    2.2087609260    1.8873315125
      3  O         1.6995001681    1.0228604156    3.0725912633
      4  N         0.0998955344   -1.1318370881    3.2874895118
[...]

 Total job time:  921.13s(wall), 2384.51s(cpu) 
 Sun Jul 12 15:58:21 2020

        *************************************************************
        *                                                           *
        *  Thank you very much for using Q-Chem.  Have a nice day.  *
        *                                                           *
        *************************************************************


 
User input: 3 of 3 
 
                  Welcome to Q-Chem
     A Quantum Leap Into The Future Of Chemistry


 Q-Chem 5.3 (devel), Q-Chem, Inc., Pleasanton, CA (2020)

 Yihan Shao,  Zhengting Gan,  E. Epifanovsky,  A. T. B. Gilbert,  M. Wormit,  
 J. Kussmann,  A. W. Lange,  A. Behn,  Jia Deng,  Xintian Feng,  D. Ghosh,  
 M. Goldey,  P. R. Horn,  L. D. Jacobson,  I. Kaliman,  T. Kus,  A. Landau,  
 Jie Liu,  E. I. Proynov,  R. M. Richard,  R. P. Steele,  E. J. Sundstrom,  
 H. L. Woodcock III,  P. M. Zimmerman,  D. Zuev,  B. Alam,  B. Albrecht,  
 E. Alguire,  S. A. Baeppler,  D. Barton,  Z. Benda,  Y. A. Bernard,  
 E. J. Berquist,  K. B. Bravaya,  H. Burton,  K. Carter-Fenk,  D. Casanova,  
 Chun-Min Chang,  Yunqing Chen,  A. Chien,  K. D. Closser,  M. P. Coons,  
 S. Coriani,  S. Dasgupta,  A. L. Dempwolff,  M. Diedenhofen,  Hainam Do,  
 R. G. Edgar,  Po-Tung Fang,  S. Faraji,  S. Fatehi,  Qingguo Feng,  
 J. Fosso-Tande,  J. Gayvert,  Qinghui Ge,  A. Ghysels,  G. Gidofalvi,  
 J. Gomes,  J. Gonthier,  A. Gunina,  D. Hait,  M. W. D. Hanson-Heine,  
 P. H. P. Harbach,  A. W. Hauser,  M. F. Herbst,  J. E. Herr,  
 E. G. Hohenstein,  Z. C. Holden,  Kerwin Hui,  B. C. Huynh,  T.-C. Jagau,  
 Hyunjun Ji,  B. Kaduk,  K. Khistyaev,  Jaehoon Kim,  P. Klunzinger,  K. Koh,  
 D. Kosenkov,  L. Koulias,  T. Kowalczyk,  C. M. Krauter,  A. Kunitsa,  
 Ka Un Lao,  A. Laurent,  K. V. Lawler,  Joonho Lee,  D. Lefrancois,  
 S. Lehtola,  D. S. Levine,  Yi-Pei Li,  You-Sheng Lin,  Fenglai Liu,  
 Kuan-Yu Liu,  E. Livshits,  M. Loipersberger,  A. Luenser,  P. Manohar,  
 E. Mansoor,  S. F. Manzer,  Shan-Ping Mao,  Yuezhi Mao,  N. Mardirossian,  
 A. V. Marenich,  T. Markovich,  L. A. Martinez-Martinez,  S. A. Maurer,  
 N. J. Mayhall,  S. C. McKenzie,  J.-M. Mewes,  P. Morgante,  A. F. Morrison,  
 J. W. Mullinax,  K. Nanda,  T. S. Nguyen-Beck,  R. Olivares-Amaya,  
 K. J. Oosterbaan,  J. A. Parkhill,  S. K. Paul,  F. Pavosevic,  Zheng Pei,  
 T. M. Perrine,  F. Plasser,  P. Pokhilko,  S. Prager,  A. Prociuk,  
 E. Ramos,  B. Rana,  D. R. Rehn,  F. Rob,  M. Scheurer,  M. Schneider,  
 N. Sergueev,  S. M. Sharada,  S. Sharma,  D. W. Small,  T. Stauch,  
 C. J. Stein,  T. Stein,  Yu-Chuan Su,  S. P. Veccham,  Zhen Tao,  
 A. J. W. Thom,  A. Tkatchenko,  T. Tsuchimochi,  N. M. Tubman,  L. Vogt,  
 M. L. Vidal,  O. Vydrov,  M. A. Watson,  J. Wenzel,  M. de Wergifosse,  
 T. A. Wesolowski,  A. White,  J. Witte,  A. Yamada,  Jun Yang,  K. Yao,  
 S. Yeganeh,  S. R. Yost,  Zhi-Qiang You,  A. Zech,  Igor Ying Zhang,  
 Xing Zhang,  Yan Zhao,  Ying Zhu,  B. R. Brooks,  G. K. L. Chan,  
 C. J. Cramer,  M. S. Gordon,  W. J. Hehre,  A. Klamt,  M. W. Schmidt,  
 C. D. Sherrill,  D. G. Truhlar,  A. Aspuru-Guzik,  R. Baer,  A. T. Bell,  
 N. A. Besley,  Jeng-Da Chai,  A. E. DePrince, III,  R. A. DiStasio Jr.,  
 A. Dreuw,  B. D. Dunietz,  T. R. Furlani,  Chao-Ping Hsu,  Yousung Jung,  
 Jing Kong,  D. S. Lambrecht,  WanZhen Liang,  C. Ochsenfeld,  
 V. A. Rassolov,  L. V. Slipchenko,  J. E. Subotnik,  T. Van Voorhis,  
 J. M. Herbert,  A. I. Krylov,  P. M. W. Gill,  M. Head-Gordon

 Contributors to earlier versions of Q-Chem not listed above: 
 R. D. Adamson,  B. Austin,  J. Baker,  G. J. O. Beran,  K. Brandhorst,  
 S. T. Brown,  E. F. C. Byrd,  A. K. Chakraborty,  C.-L. Cheng,  
 Siu Hung Chien,  D. M. Chipman,  D. L. Crittenden,  H. Dachsel,  
 R. J. Doerksen,  A. D. Dutoi,  L. Fusti-Molnar,  W. A. Goddard III,  
 A. Golubeva-Zadorozhnaya,  S. R. Gwaltney,  G. Hawkins,  A. Heyden,  
 S. Hirata,  G. Kedziora,  F. J. Keil,  C. Kelley,  Jihan Kim,  R. A. King,  
 R. Z. Khaliullin,  P. P. Korambath,  W. Kurlancheek,  A. M. Lee,  M. S. Lee,  
 S. V. Levchenko,  Ching Yeh Lin,  D. Liotard,  R. C. Lochan,  I. Lotan,  
 P. E. Maslen,  N. Nair,  D. P. O'Neill,  D. Neuhauser,  E. Neuscamman,  
 C. M. Oana,  R. Olson,  B. Peters,  R. Peverati,  P. A. Pieniazek,  
 Y. M. Rhee,  J. Ritchie,  M. A. Rohrdanz,  E. Rosta,  N. J. Russ,  
 H. F. Schaefer III,  N. E. Schultz,  N. Shenvi,  A. C. Simmonett,  A. Sodt,  
 D. Stuck,  K. S. Thanthiriwatte,  V. Vanovschi,  Tao Wang,  A. Warshel,  
 C. F. Williams,  Q. Wu,  X. Xu,  W. Zhang

 Please cite Q-Chem as follows:
 Y. Shao et al., Mol. Phys. 113, 184-215 (2015)
 DOI: 10.1080/00268976.2014.952696

 Q-Chem 5.3.0 for Intel X86 EM64T Linux

 Parts of Q-Chem use Armadillo 9.800.1 (Horizon Scraper).
 http://arma.sourceforge.net/

 Q-Chem begins on Sun Jul 12 15:58:21 2020  

Host: centos77-c2
0

     Scratch files written to /tmp/28899.centos77-h1/qchem97920//
Processing $rem in /opt/qchem-5.3.0-intel2020u1//config/preferences:
Processing $rem in /home/shihchengli/.qchemrc:
The previous job contains 0 fragments, simply inherited here

Checking the input file for inconsistencies... 	...done.

--------------------------------------------------------------
User input:
--------------------------------------------------------------

$molecule
read
$end

$rem
   JOBTYPE         ts
   EXCHANGE omegaB97X-D
   BASIS 6-311+G(2df,2pd)
   XC_GRID 000075000302
   GEOM_OPT_HESSIAN READ
   SCF_ALGORITHM DIIS
   MAX_SCF_CYCLES 150
   SCF_CONVERGENCE 8
   SYM_IGNORE TRUE
   SYMMETRY FALSE
   WAVEFUNCTION_ANALYSIS FALSE
   UNRESTRICTED  TRUE
$end
--------------------------------------------------------------
 ----------------------------------------------------------------
             Standard Nuclear Orientation (Angstroms)
    I     Atom           X                Y                Z
 ----------------------------------------------------------------
    1      N       0.6887312383     1.2118958207     2.4769844230
    2      O       0.3800365760     2.1797583567     1.8566556806
    3      O       1.6055713756     0.9862447633     3.1903818086
    4      N       0.0382743045    -1.1501223389     3.1427534090
    5      O      -0.4830308768    -1.3329518732     4.1722126090
    6      O      -0.2845914876     0.2001643813     2.2613119598
 ----------------------------------------------------------------
 Nuclear Repulsion Energy =         231.50938127 hartrees
 There are       24 alpha and       22 beta electrons
 Requested basis set is 6-311+G(2df,2pd)
 There are 48 shells and 204 basis functions

 Total QAlloc Memory Limit   2000 MB
 Mega-Array Size       188 MB
 MEM_STATIC part       192 MB
 A cutoff of  1.0D-11 yielded   1065 shell pairs
 There are     19780 function pairs (     26003 Cartesian)
 Smallest overlap matrix eigenvalue = 6.70E-04

 Scale SEOQF with 1.000000e-01/1.000000e-01/1.000000e-01

 Standard Electronic Orientation quadrupole field applied
 Nucleus-field energy     =    -0.0000000363 hartrees
 Guess from superposition of atomic densities
 Warning:  Energy on first SCF cycle will be non-variational
 SAD guess density has 46.000000 electrons

 -----------------------------------------------------------------------
  General SCF calculation program by
  Eric Jon Sundstrom, Paul Horn, Yuezhi Mao, Dmitri Zuev, Alec White,
  David Stuck, Shaama M.S., Shane Yost, Joonho Lee, David Small,
  Daniel Levine, Susi Lehtola, Hugh Burton, Evgeny Epifanovsky,
  Bang C. Huynh
 -----------------------------------------------------------------------
 Exchange:     0.2220 Hartree-Fock + 1.0000 wB97X-D + LR-HF
 Correlation:  1.0000 wB97X-D
 Using Euler-Maclaurin-Lebedev (75,302) quadrature formula
 Dispersion:   Grimme D
 using 6 threads for integral computing
 -------------------------------------------------------
 OpenMP Integral computing Module                
 Release: version 1.0, May 2013, Q-Chem Inc. Pittsburgh 
 -------------------------------------------------------
 using 6 threads for integral computing
 -------------------------------------------------------
 OpenMP Integral computing Module                
 Release: version 1.0, May 2013, Q-Chem Inc. Pittsburgh 
 -------------------------------------------------------
 A unrestricted SCF calculation will be
 performed using DIIS
 SCF converges when DIIS error is below 1.0e-08
 ---------------------------------------
  Cycle       Energy         DIIS error
 ---------------------------------------
    1    -411.1386441424      1.84e-02  
    2    -409.8131341513      4.19e-03  
    3    -409.5292833860      6.53e-03  
    4    -410.0721729427      7.55e-04  
    5    -410.0777237996      4.63e-04  
    6    -410.0811327267      7.30e-05  
    7    -410.0814132812      4.06e-05  
    8    -410.0814983008      3.02e-05  
    9    -410.0815425488      1.30e-05  
   10    -410.0815575095      7.34e-06  
   11    -410.0815606635      4.77e-06  
   12    -410.0815622063      1.48e-06  
   13    -410.0815625407      8.35e-07  
   14    -410.0815626409      4.53e-07  
   15    -410.0815626915      2.28e-07  
   16    -410.0815627052      1.15e-07  
   17    -410.0815627086      4.79e-08  
   18    -410.0815627092      1.84e-08  
   19    -410.0815627092      8.23e-09  Convergence criterion met
 ---------------------------------------
 SCF time:   CPU 206.78s  wall 38.00s 
<S^2> =          2.018120332
 SCF   energy in the final basis set =     -410.0815627092
 Total energy in the final basis set =     -410.0815627092
 No wavefunction analysis requested
 Calculating analytic gradient of the SCF energy
 Gradient of SCF Energy
            1           2           3           4           5           6
    1   0.0001027   0.0000122   0.0000662   0.0000801  -0.0001145  -0.0001467
    2   0.0000305  -0.0001048   0.0000794   0.0002311  -0.0000627  -0.0001735
    3  -0.0000498   0.0000461   0.0000605  -0.0002210   0.0000708   0.0000933
 Max gradient component =       2.311E-04
 RMS gradient           =       1.137E-04
 Gradient time:  CPU 37.73 s  wall 6.71 s
 Geometry Optimization Parameters
   NAtoms,    NIC,     NZ,  NCons,   NDum,   NFix, NCnnct, MaxDiis
        6      25       0       0       0       0       0       0

 Cartesian Hessian read from HESS file


** GEOMETRY OPTIMIZATION IN DELOCALIZED INTERNAL COORDINATES **
   Searching for a Transition State

   Optimization Cycle:   1

                       Coordinates (Angstroms)
     ATOM                X               Y               Z
      1  N         0.6887312383    1.2118958207    2.4769844230
      2  O         0.3800365760    2.1797583567    1.8566556806
      3  O         1.6055713756    0.9862447633    3.1903818086
      4  N         0.0382743045   -1.1501223389    3.1427534090
      5  O        -0.4830308768   -1.3329518732    4.1722126090
      6  O        -0.2845914876    0.2001643813    2.2613119598
   Point Group: c1    Number of degrees of freedom:    12


   Energy is   -410.081562709


 Attempting to generate delocalized internal coordinates

 Transforming Cartesian Hessian to Internal Coordinates
 Hessian Transformation does not Include Derivative of B-matrix

 12 Hessian modes will be used to form the next step
  Hessian Eigenvalues:
    -0.115607    0.006417    0.009786    0.128115    0.153886    0.210915
     0.285369    0.292103    0.379502    0.704349    0.906894    0.926880

 Transition state search - taking P-RFO step
 Searching for Lamda that Maximizes Along the Lowest mode
 Value Taken    Lamda =   0.00000049
 Searching for Lamda that Minimizes Along All other modes
 Value Taken    Lamda =  -0.00000271
 Step Taken.  Stepsize is  0.019868

                             Maximum     Tolerance    Cnvgd?
         Gradient           0.000187      0.000300     YES
         Displacement       0.010555      0.001200      NO
         Energy change     *********      0.000001      NO


 New Cartesian Coordinates Obtained by Inverse Iteration

 Displacement from previous Coordinates is:  0.025276
 ----------------------------------------------------------------
             Standard Nuclear Orientation (Angstroms)
    I     Atom           X                Y                Z
 ----------------------------------------------------------------
    1      N       0.6877539257     1.2105143434     2.4777162057
    2      O       0.3799464281     2.1800146099     1.8595030004
    3      O       1.6027221962     0.9832628380     3.1929848041
    4      N       0.0353553176    -1.1510459660     3.1391660238
    5      O      -0.4771174168    -1.3257843361     4.1745324610
    6      O      -0.2836693207     0.1980276207     2.2563973950
 ----------------------------------------------------------------
 Nuclear Repulsion Energy =         231.60891373 hartrees
 There are       24 alpha and       22 beta electrons
 Applying Cartesian multipole field
    Component          Value
    ---------          -----
     (2,0,0)        1.00000E-11
     (0,2,0)        2.00000E-11
     (0,0,2)       -3.00000E-11
 Nucleus-field energy     =    -0.0000000363 hartrees
 Requested basis set is 6-311+G(2df,2pd)
 There are 48 shells and 204 basis functions
 A cutoff of  1.0D-11 yielded   1065 shell pairs
 There are     19780 function pairs (     26003 Cartesian)
 Smallest overlap matrix eigenvalue = 6.71E-04
 Guess MOs from SCF MO coefficient file

 -----------------------------------------------------------------------
  General SCF calculation program by
  Eric Jon Sundstrom, Paul Horn, Yuezhi Mao, Dmitri Zuev, Alec White,
  David Stuck, Shaama M.S., Shane Yost, Joonho Lee, David Small,
  Daniel Levine, Susi Lehtola, Hugh Burton, Evgeny Epifanovsky,
  Bang C. Huynh
 -----------------------------------------------------------------------
 Exchange:     0.2220 Hartree-Fock + 1.0000 wB97X-D + LR-HF
 Correlation:  1.0000 wB97X-D
 Using Euler-Maclaurin-Lebedev (75,302) quadrature formula
 Dispersion:   Grimme D
 using 6 threads for integral computing
 -------------------------------------------------------
 OpenMP Integral computing Module                
 Release: version 1.0, May 2013, Q-Chem Inc. Pittsburgh 
 -------------------------------------------------------
 using 6 threads for integral computing
 -------------------------------------------------------
 OpenMP Integral computing Module                
 Release: version 1.0, May 2013, Q-Chem Inc. Pittsburgh 
 -------------------------------------------------------
 A unrestricted SCF calculation will be
 performed using DIIS
 SCF converges when DIIS error is below 1.0e-08
 ---------------------------------------
  Cycle       Energy         DIIS error
 ---------------------------------------
    1    -410.0814332108      6.99e-05  
    2    -410.0815534330      1.28e-05  
    3    -410.0815624034      3.25e-06  
    4    -410.0815633938      2.36e-06  
    5    -410.0815635724      1.49e-06  
    6    -410.0815637424      5.93e-07  
    7    -410.0815637871      3.95e-07  
    8    -410.0815638140      2.84e-07  
    9    -410.0815638265      1.54e-07  
   10    -410.0815638293      6.07e-08  
   11    -410.0815638298      5.02e-08  
   12    -410.0815638299      1.92e-08  
   13    -410.0815638300      1.14e-08  
   14    -410.0815638300      5.31e-09  Convergence criterion met
 ---------------------------------------
 SCF time:   CPU 161.25s  wall 29.00s 
<S^2> =          2.018081063
 SCF   energy in the final basis set =     -410.0815638300
 Total energy in the final basis set =     -410.0815638300
 No wavefunction analysis requested
 Calculating analytic gradient of the SCF energy
 Gradient of SCF Energy
            1           2           3           4           5           6
    1   0.0000054   0.0000137  -0.0000051  -0.0000072  -0.0000163   0.0000095
    2   0.0000023   0.0000027  -0.0000003   0.0000006  -0.0000051  -0.0000002
    3   0.0000075   0.0000061   0.0000194  -0.0000043  -0.0000194  -0.0000093
 Max gradient component =       1.941E-05
 RMS gradient           =       9.544E-06
 Gradient time:  CPU 32.47 s  wall 5.62 s
 Geometry Optimization Parameters
   NAtoms,    NIC,     NZ,  NCons,   NDum,   NFix, NCnnct, MaxDiis
        6      25       0       0       0       0       0       0

 Cartesian Hessian Update
 Hessian updated using Powell/Murtagh-Sargent update
  Mixing factors:     0.999868 Powell                      0.000132 Murtagh-Sargent


** GEOMETRY OPTIMIZATION IN DELOCALIZED INTERNAL COORDINATES **
   Searching for a Transition State

   Optimization Cycle:   2

                       Coordinates (Angstroms)
     ATOM                X               Y               Z
      1  N         0.6877539257    1.2105143434    2.4777162057
      2  O         0.3799464281    2.1800146099    1.8595030004
      3  O         1.6027221962    0.9832628380    3.1929848041
      4  N         0.0353553176   -1.1510459660    3.1391660238
      5  O        -0.4771174168   -1.3257843361    4.1745324610
      6  O        -0.2836693207    0.1980276207    2.2563973950
   Point Group: c1    Number of degrees of freedom:    12


   Energy is   -410.081563830

 Hessian updated using Powell/Murtagh-Sargent update
  Mixing factors:     0.990810 Powell                      0.009190 Murtagh-Sargent

 12 Hessian modes will be used to form the next step
  Hessian Eigenvalues:
    -0.115609    0.006398    0.009780    0.128102    0.153885    0.210909
     0.285368    0.292103    0.379497    0.704349    0.906893    0.926874

 Transition state search - taking P-RFO step
 Searching for Lamda that Maximizes Along the Lowest mode
 Value Taken    Lamda =   0.00000000
 Searching for Lamda that Minimizes Along All other modes
 Value Taken    Lamda =  -0.00000000
 Step Taken.  Stepsize is  0.000128

                             Maximum     Tolerance    Cnvgd?
         Gradient           0.000003      0.000300     YES
         Displacement       0.000075      0.001200     YES
         Energy change     -0.000001      0.000001      NO


                       Distance Matrix (Angstroms)
             N (  1)   O (  2)   O (  3)   N (  4)   O (  5)
   O (  2)  1.190321
   O (  3)  1.183393  2.169232
   N (  4)  2.537737  3.585003  2.648549
   O (  5)  3.266332  4.287720  3.258967  1.168394
   O (  6)  1.420484  2.127483  2.247724  1.643489  2.457370
 
 Final energy is   -410.081563829987     


 ******************************
 **  OPTIMIZATION CONVERGED  **
 ******************************

                       Coordinates (Angstroms)
     ATOM                X               Y               Z
      1  N         0.6877539257    1.2105143434    2.4777162057
      2  O         0.3799464281    2.1800146099    1.8595030004
      3  O         1.6027221962    0.9832628380    3.1929848041
      4  N         0.0353553176   -1.1510459660    3.1391660238
      5  O        -0.4771174168   -1.3257843361    4.1745324610
      6  O        -0.2836693207    0.1980276207    2.2563973950

Z-matrix Print:
$molecule
0 3
N 
O  1 1.183393
O  1 1.190321 2 132.087298
O  1 1.420484 2 119.080862 3 -179.711931 0
N  4 1.643489 1 111.632542 2 2.589446 0
O  5 1.168394 4 120.903763 1 95.694919 0
$end

 No wavefunction analysis requested
Archival summary:
1\1\centos77-c2\TS\ProcedureUnspecified\BasisUnspecified\42(3)\shihchen\SunJul1215:59:412020SunJul1215:59:412020\0\\#,TS,ProcedureUnspecified,BasisUnspecified,\\0,3\N\O,1,1.18339\O,1,1.19032,2,132.087\O,1,1.42048,2,119.081,3,-179.712,0\N,4,1.64349,1,111.633,2,2.58945,0\O,5,1.16839,4,120.904,1,95.6949,0\\\@

 Total job time:  80.35s(wall), 440.46s(cpu) 
 Sun Jul 12 15:59:41 2020

        *************************************************************
        *                                                           *
        *  Thank you very much for using Q-Chem.  Have a nice day.  *
        *                                                           *
        *************************************************************


