6
# Point -3 Energy = 0.021058400000001143
C       -4.5479447256     0.6240801466     0.1610382296
C       -3.4027277926     1.2842425746     0.1618428860
H       -5.2739257020     0.8517498478     -0.6090642102
H       -4.5438320084     -0.4195072353     0.4490426384
H       -3.2449900303     2.0400832692     -0.5969134642
H       -2.5012897412     0.7499813973     0.4340539203
6
# Point -2 Energy = 0.009235969999991767
C       -4.5293107000     0.5911726219     0.1083543914
C       -3.3844946651     1.2520304771     0.1084701088
H       -5.3140766036     0.8621874796     -0.5863857325
H       -4.5725071865     -0.4252303372     0.4785868487
H       -3.2325105649     2.0753035025     -0.5778497849
H       -2.4818102799     0.7751662563     0.4688241685
6
# Point -1 Energy = 0.0022753199999954177
C       -4.5103554832     0.5577929502     0.0544840395
C       -3.3657740541     1.2190569701     0.0541846350
H       -5.3426921892     0.8755511612     -0.5605334574
H       -4.5935449777     -0.4224656965     0.5063251451
H       -3.2280362257     2.1025576490     -0.5560551211
H       -2.4743070701     0.7981369661     0.5015947590
6
# Point 0 Energy = 0
C       -4.4913704873     0.5244062385     0.0002185548
C       -3.3468663940     1.1858040014     -0.0002181026
H       -5.3593071720     0.8921807099     -0.5321908950
H       -4.6061391046     -0.4114544652     0.5321543649
H       -3.2320974947     2.1216643106     -0.5321545484
H       -2.4789293474     0.8180292049     0.5321906263
6
# Point 1 Energy = 0.0022753199999954177
C       -4.4724624182     0.4911524445     -0.0541854969
C       -3.3278816123     1.1524174977     -0.0544831846
H       -5.3639295504     0.9120731959     -0.5015945097
H       -4.6102005175     -0.3923474405     0.5560553368
H       -3.2446916252     2.1326755926     -0.5063253877
H       -2.4955442765     0.8346587099     0.5605332421
6
# Point 2 Energy = 0.009235969999991767
C       -4.4537416800     0.4581783221     -0.1084718453
C       -3.3089268997     1.1190382578     -0.1083526724
H       -5.3564262314     0.9350439051     -0.4688235446
H       -4.6057262465     -0.3650929054     0.5778500843
H       -3.2657293445     2.1354403135     -0.4785874599
H       -2.5241595979     0.8480221071     0.5863854379
6
# Point 3 Energy = 0.021058400000001143
C       -4.4355085281     0.4259655731     -0.1618454849
C       -3.2902934723     1.0861311127     -0.1610356606
H       -5.3369465331     0.9602286178     -0.4340528186
H       -4.5932468782     -0.3298721167     0.5969137134
H       -3.2944044806     2.1297174781     -0.4490437257
H       -2.5643101075     0.8584593352     0.6090639764

    This sampling was finished on:   2020-07-28 16:52:28
=------------------------------------------------------------------------------=
Sampling finished.
=------------------------------------------------------------------------------=