6
# Point -2 Energy = 0.013512620000000197
C       -4.5347052185     0.4994971016     0.0003378274
C       -3.3035194198     1.2106918120     -0.0003721717
H       -5.3493273314     0.9498280053     -0.5639936133
H       -4.5511748094     -0.4316096315     0.5638977192
H       -3.2870708513     2.1418352216     -0.5638721185
H       -2.4889123697     0.7603874911     0.5640023569
6
# Point -1 Energy = 0.0036269000000004326
C       -4.5130368369     0.5119498955     0.0002759568
C       -3.3251954468     1.1982523147     -0.0002885905
H       -5.3553493783     0.9213612105     -0.5486664242
H       -4.5788642258     -0.4226057399     0.5486011466
H       -3.2593718749     2.1328147472     -0.5486026676
H       -2.4828922374     0.7888575721     0.5486805789
6
# Point 0 Energy = 0
C       -4.4913704873     0.5244062385     0.0002185548
C       -3.3468663940     1.1858040014     -0.0002181026
H       -5.3593071720     0.8921807099     -0.5321908950
H       -4.6061391046     -0.4114544652     0.5321543649
H       -3.2320974947     2.1216643106     -0.5321545484
H       -2.4789293474     0.8180292049     0.5321906263
6
# Point 1 Energy = 0.004197410000003288
C       -4.4697071840     0.5368678809     0.0001683876
C       -3.3685334629     1.1733489580     -0.0001571814
H       -5.3611599479     0.8623968660     -0.5145922559
H       -4.6328825156     -0.3981774157     0.5145799688
H       -3.2053494192     2.1083791498     -0.5145934362
H       -2.4770774704     0.8478145611     0.5145945171
6
# Point 2 Energy = 0.0181321999999966
C       -4.4480482253     0.5493370556     0.0001289956
C       -3.3901981670     1.1608898009     -0.0001014601
H       -5.3608576157     0.8320959466     -0.4959388327
H       -4.6589934416     -0.3827765982     0.4959428278
H       -3.1792416740     2.0929838138     -0.4959473843
H       -2.4773708765     0.8780999815     0.4959158536

    This sampling was finished on:   2020-07-28 16:52:28
=------------------------------------------------------------------------------=
Sampling finished.
=------------------------------------------------------------------------------=