6
# Point -2 Energy = 0.030411889999996333
C       -4.4654833521     0.4798299049     0.0366768825
C       -3.3209789353     1.1412270513     0.0362391884
H       -5.4160325041     0.8896721172     -0.5507751099
H       -4.5743577892     -0.3638235485     0.5142798334
H       -3.2015165800     2.1691922364     -0.5503911705
H       -2.5363408392     0.8145322388     0.5139703762
6
# Point -1 Energy = 0.007446599999994419
C       -4.4784291620     0.5021219555     0.0184548107
C       -3.3339250477     1.1635196538     0.0180179081
H       -5.3877542546     0.8907995853     -0.5414430164
H       -4.5903976586     -0.3876524637     0.5231700743
H       -3.2166562896     2.1454404708     -0.5412291775
H       -2.5075475875     0.8164007983     0.5230294009
6
# Point 0 Energy = 0
C       -4.4913704873     0.5244062385     0.0002185548
C       -3.3468663940     1.1858040014     -0.0002181026
H       -5.3593071720     0.8921807099     -0.5321908950
H       -4.6061391046     -0.4114544652     0.5321543649
H       -3.2320974947     2.1216643106     -0.5321545484
H       -2.4789293474     0.8180292049     0.5321906263
6
# Point 1 Energy = 0.0074466200000102845
C       -4.5043117559     0.5466904264     -0.0180179823
C       -3.3598074873     1.2080879139     -0.0184547008
H       -5.3306884142     0.8938091710     -0.5230291581
H       -4.6215805749     -0.4352308373     0.5412293213
H       -3.2478388223     2.0978627730     -0.5231701754
H       -2.4504829454     0.8194105532     0.5414426953
6
# Point 2 Energy = 0.03041196000000923
C       -4.5172579363     0.5689831269     -0.0362393706
C       -3.3727532109     1.2303798516     -0.0366766965
H       -5.3018945669     0.8956776469     -0.5139698423
H       -4.6367204818     -0.4589829345     0.5503914434
H       -3.2638784977     2.0740341892     -0.5142800717
H       -2.4222053065     0.8205381200     0.5507745376

    This sampling was finished on:   2020-07-28 16:52:28
=------------------------------------------------------------------------------=
Sampling finished.
=------------------------------------------------------------------------------=