6
# Point -2 Energy = 0.03527907000000141
C       -4.5008297961     0.5188149175     0.0002727274
C       -3.3374064898     1.1913931858     -0.0002750043
H       -5.2812846401     0.8567910674     -0.4829208830
H       -4.5975464665     -0.3255323088     0.4826126407
H       -3.2406908284     2.0357441980     -0.4826122145
H       -2.5569517791     0.8534189402     0.4829227337
6
# Point -1 Energy = 0.007984199999995667
C       -4.4961003950     0.5216110083     0.0002444204
C       -3.3421357484     1.1885973973     -0.0002465824
H       -5.3202012033     0.8746415458     -0.5076172071
H       -4.6016594806     -0.3684871513     0.5074449828
H       -3.2365776853     2.0786983995     -0.5074442355
H       -2.5180354874     0.8355688004     0.5076186218
6
# Point 0 Energy = 0
C       -4.4913704873     0.5244062385     0.0002185548
C       -3.3468663940     1.1858040014     -0.0002181026
H       -5.3593071720     0.8921807099     -0.5321908950
H       -4.6061391046     -0.4114544652     0.5321543649
H       -3.2320974947     2.1216643106     -0.5321545484
H       -2.4789293474     0.8180292049     0.5321906263
6
# Point 1 Energy = 0.006500019999990059
C       -4.4866396632     0.5271998984     0.0001938186
C       -3.3515979518     1.1830121781     -0.0001907524
H       -5.3986011942     0.9094081693     -0.5566402879
H       -4.6109851302     -0.4544319417     0.5567403855
H       -3.2272509059     2.1646403853     -0.5567415040
H       -2.4396351547     0.8008013106     0.5566383402
6
# Point 2 Energy = 0.023748490000002676
C       -4.4819079962     0.5299921140     0.0001702714
C       -3.3563304325     1.1802219469     -0.0001643535
H       -5.4380816581     0.9263231310     -0.5809644172
H       -4.6161971111     -0.4974176950     0.5812019612
H       -3.2220383232     2.2076246653     -0.5812041379
H       -2.4001544789     0.7838858378     0.5809606761

    This sampling was finished on:   2020-07-28 16:52:28
=------------------------------------------------------------------------------=
Sampling finished.
=------------------------------------------------------------------------------=