6
# Point -2 Energy = 0.01148815999999897
C       -4.4552721435     0.4713127429     0.0456135928
C       -3.3829646218     1.2388973642     -0.0456133639
H       -5.2770766746     0.9063660980     -0.5118280720
H       -4.6501907942     -0.4651225022     0.5493936457
H       -3.1880457444     2.1753320847     -0.5493942666
H       -2.5611600214     0.8038442125     0.5118284640
6
# Point -1 Energy = 0.002857439999999656
C       -4.4743095187     0.4972335471     0.0229542152
C       -3.3639273106     1.2129766373     -0.0229538583
H       -5.3198432731     0.8989444841     -0.5223934205
H       -4.6293132301     -0.4396398653     0.5411937196
H       -3.2089233376     2.1498495754     -0.5411941247
H       -2.5183933299     0.8112656214     0.5223934687
6
# Point 0 Energy = 0
C       -4.4913704873     0.5244062385     0.0002185548
C       -3.3468663940     1.1858040014     -0.0002181026
H       -5.3593071720     0.8921807099     -0.5321908950
H       -4.6061391046     -0.4114544652     0.5321543649
H       -3.2320974947     2.1216643106     -0.5321545484
H       -2.4789293474     0.8180292049     0.5321906263
6
# Point 1 Energy = 0.00283965999999225
C       -4.5064049407     0.5527482046     -0.0225205942
C       -3.3318319736     1.1574620571     0.0225210895
H       -5.3953665668     0.8860666227     -0.5411805453
H       -4.5807070031     -0.3806504827     0.5223121356
H       -3.2575296329     2.0908604747     -0.5223120853
H       -2.4428698828     0.8241431236     0.5411799997
6
# Point 2 Energy = 0.011407669999996983
C       -4.5193661857     0.5821749053     -0.0451903661
C       -3.3188707501     1.1280353573     0.0451908731
H       -5.4279290374     0.8805942984     -0.5493260608
H       -4.5530599478     -0.3473203467     0.5117071697
H       -3.2851767242     2.0575304864     -0.5117068905
H       -2.4103073548     0.8296152993     0.5493252746

    This sampling was finished on:   2020-07-28 16:52:28
=------------------------------------------------------------------------------=
Sampling finished.
=------------------------------------------------------------------------------=