6
# Point -3 Energy = 0.022177769999998986
C       -4.5208511144     0.6162404890     0.1332565476
C       -3.3173742341     1.0939575985     -0.1332807430
H       -5.3197267884     0.8631067122     -0.5543427498
H       -4.5859430795     -0.4065029485     0.4823027810
H       -3.2522970760     2.1167167420     -0.4822840871
H       -2.5185177077     0.8471114070     0.5543482514
6
# Point -2 Energy = 0.009552839999997786
C       -4.5150389485     0.5833872727     0.0890114722
C       -3.3231866280     1.1268094109     -0.0890360981
H       -5.3388164790     0.8746914665     -0.5501299619
H       -4.5940163077     -0.4141514757     0.5021895940
H       -3.2442246497     2.1243663308     -0.5021736049
H       -2.4994269871     0.8355269949     0.5501385987
6
# Point -1 Energy = 0.002325249999998391
C       -4.5051369810     0.5526860295     0.0445004124
C       -3.3330939191     1.1575167961     -0.0445134347
H       -5.3522187273     0.8840464981     -0.5425720075
H       -4.6011598280     -0.4157841405     0.5186808733
H       -3.2370764369     2.1259920903     -0.5186804400
H       -2.4860241077     0.8261727267     0.5425845964
6
# Point 0 Energy = 0
C       -4.4913704873     0.5244062385     0.0002185548
C       -3.3468663940     1.1858040014     -0.0002181026
H       -5.3593071720     0.8921807099     -0.5321908950
H       -4.6061391046     -0.4114544652     0.5321543649
H       -3.2320974947     2.1216643106     -0.5321545484
H       -2.4789293474     0.8180292049     0.5321906263
6
# Point 1 Energy = 0.0023243899999982887
C       -4.4737165020     0.4983342804     -0.0441068869
C       -3.3645241417     1.2118840895     0.0441197659
H       -5.3600995167     0.8994090722     -0.5190039933
H       -4.6087705289     -0.4012050344     0.5428469963
H       -3.2294633633     2.1114096377     -0.5428538917
H       -2.4781359475     0.8107979546     0.5189980097
6
# Point 2 Energy = 0.009551230000013788
C       -4.4519753937     0.4743538587     -0.0887533116
C       -3.3862636062     1.2358644948     0.0887658634
H       -5.3546002351     0.9055814888     -0.5027655423
H       -4.6092696854     -0.3848321609     0.5507371827
H       -3.2289671693     2.0950395403     -0.5507359211
H       -2.4836339104     0.8046227784     0.5027517290
6
# Point 3 Energy = 0.022205009999993308
C       -4.4262548984     0.4528254647     -0.1331979715
C       -3.4119868084     1.2574015206     0.1332206657
H       -5.3433388880     0.9096068712     -0.4831026402
H       -4.6087882042     -0.3623568958     0.5552860365
H       -3.2294417432     2.0725530515     -0.5552969886
H       -2.4948994577     0.8005999878     0.4830908982

    This sampling was finished on:   2020-07-28 16:52:28
=------------------------------------------------------------------------------=
Sampling finished.
=------------------------------------------------------------------------------=