6
# Point -2 Energy = 0.012344310000003134
C       -4.5140193609     0.5110086023     -0.0000503132
C       -3.3242214690     1.1992077944     0.0000610731
H       -5.4430731529     0.7848033308     -0.4959745507
H       -4.7411075839     -0.4304080737     0.4961251757
H       -3.0971241482     2.1406098794     -0.4961378957
H       -2.3951642852     0.9254084669     0.4959765109
6
# Point -1 Energy = 0.003119519999998488
C       -4.5026910689     0.5177006863     0.0000720451
C       -3.3355462258     1.1925099140     -0.0000708719
H       -5.4024440667     0.8390890510     -0.5148891805
H       -4.6737355723     -0.4223132093     0.5149541682
H       -3.1645007305     2.1325227425     -0.5149545977
H       -2.4357923358     0.8711208157     0.5148884368
6
# Point 0 Energy = 0
C       -4.4913704873     0.5244062385     0.0002185548
C       -3.3468663940     1.1858040014     -0.0002181026
H       -5.3593071720     0.8921807099     -0.5321908950
H       -4.6061391046     -0.4114544652     0.5321543649
H       -3.2320974947     2.1216643106     -0.5321545484
H       -2.4789293474     0.8180292049     0.5321906263
6
# Point 1 Energy = 0.0032209900000026437
C       -4.4800560632     0.5311226265     0.0003849760
C       -3.3581797407     1.1790861451     -0.0003870734
H       -5.3137687279     0.9439454876     -0.5478382870
H       -4.5384881945     -0.3978548940     0.5476888690
H       -3.2997490156     2.1080655724     -0.5476878790
H       -2.5244682582     0.7662650624     0.5478393944
6
# Point 2 Energy = 0.013146239999997533
C       -4.4687451986     0.5378454186     0.0005641201
C       -3.3694827565     1.1723502046     -0.0005878665
H       -5.2659434591     0.9942584403     -0.5617898101
H       -4.4709513235     -0.3815469658     0.5615236481
H       -3.3672898741     2.0917642996     -0.5615118978
H       -2.5722973883     0.7159586028     0.5618018063

    This sampling was finished on:   2020-07-28 16:52:28
=------------------------------------------------------------------------------=
Sampling finished.
=------------------------------------------------------------------------------=