6
# Point -2 Energy = 0.013538839999995389
C       -4.4122597113     0.5697585399     -0.0001748564
C       -3.2677402981     1.2311300499     -0.0006608298
H       -5.3568263728     0.8083169116     -0.4795873652
H       -4.6778164124     -0.3671946172     0.4799496481
H       -3.3053739315     2.1457549585     -0.5725613336
H       -2.4946932739     0.7428641574     0.5730347369
6
# Point -1 Energy = 0.003370889999999349
C       -4.4517033115     0.5471419547     0.0000152087
C       -3.3071953476     1.2085331576     -0.0004337892
H       -5.3603577782     0.8512314912     -0.5072976810
H       -4.6422741263     -0.3918021385     0.5074658360
H       -3.2686324201     2.1362675732     -0.5538894614
H       -2.4845470163     0.7792579620     0.5541398869
6
# Point 0 Energy = 0
C       -4.4913704873     0.5244062385     0.0002185548
C       -3.3468663940     1.1858040014     -0.0002181026
H       -5.3593071720     0.8921807099     -0.5321908950
H       -4.6061391046     -0.4114544652     0.5321543649
H       -3.2320974947     2.1216643106     -0.5321545484
H       -2.4789293474     0.8180292049     0.5321906263
6
# Point 1 Energy = 0.003370899999993071
C       -4.5310412919     0.5016768037     0.0004337494
C       -3.3865334950     1.1630680033     -0.0000151771
H       -5.3536893909     0.9309522790     -0.5541399212
H       -4.5696040383     -0.4260575055     0.5538895534
H       -3.1959627753     2.1020120445     -0.5074658770
H       -2.4778790086     0.8589783752     0.5072976725
6
# Point 2 Energy = 0.013538850000017533
C       -4.5704962589     0.4790798950     0.0006607293
C       -3.4259771832     1.1404514045     0.0001749093
H       -5.3435429234     0.9673462439     -0.5730347621
H       -4.5328623200     -0.4355447844     0.5725614681
H       -3.1604207279     2.0774044833     -0.4799497558
H       -2.4814105866     0.9018927577     0.4795874112

    This sampling was finished on:   2020-07-28 16:52:28
=------------------------------------------------------------------------------=
Sampling finished.
=------------------------------------------------------------------------------=