6
# Point -2 Energy = 0.030272650000014778
C       -4.5015865962     0.5430166484     -0.0147988358
C       -3.3366500730     1.1671929760     0.0147996901
H       -5.2760827960     0.8841158760     -0.4978052858
H       -4.6423914021     -0.4863509518     0.5651697054
H       -3.1958448458     2.1965615849     -0.5651702695
H       -2.5621542867     0.8260938666     0.4978049956
6
# Point -1 Energy = 0.007399179999993066
C       -4.4965909442     0.5336504236     -0.0072922360
C       -3.3416458306     1.1765595108     0.0072928926
H       -5.3176370540     0.8883767632     -0.5151175093
H       -4.6240530208     -0.4489673601     0.5487766156
H       -3.2141834041     2.1591775976     -0.5487769933
H       -2.5205997462     0.8218330651     0.5151172303
6
# Point 0 Energy = 0
C       -4.4913704873     0.5244062385     0.0002185548
C       -3.3468663940     1.1858040014     -0.0002181026
H       -5.3593071720     0.8921807099     -0.5321908950
H       -4.6061391046     -0.4114544652     0.5321543649
H       -3.2320974947     2.1216643106     -0.5321545484
H       -2.4789293474     0.8180292049     0.5321906263
6
# Point 1 Energy = 0.007377489999996101
C       -4.4859292704     0.5152913835     0.0077275806
C       -3.3523077182     1.1949191576     -0.0077273394
H       -5.4010873021     0.8955392928     -0.5490304497
H       -4.5886633350     -0.3738112352     0.5152975030
H       -3.2495734357     2.0840206913     -0.5152974862
H       -2.4371489386     0.8146707102     0.5490301918
6
# Point 2 Energy = 0.030116829999997208
C       -4.4802717733     0.5063128843     0.0152288942
C       -3.3579653252     1.2038979561     -0.0152288664
H       -5.4429713025     0.8984652941     -0.5656418175
H       -4.5716381711     -0.3360369892     0.4982012293
H       -3.2665987669     2.0462460572     -0.4982010086
H       -2.3952646610     0.8117447977     0.5656415690

    This sampling was finished on:   2020-07-28 16:52:28
=------------------------------------------------------------------------------=
Sampling finished.
=------------------------------------------------------------------------------=