6
# Point -2 Energy = 0.029359149999990564
C       -4.4569823972     0.5444772200     0.0001441185
C       -3.3124771083     1.2058732415     -0.0002941645
H       -5.4121403783     0.9432561794     -0.5821830414
H       -4.5884407168     -0.4830316973     0.5822211970
H       -3.2134235851     2.0501210395     -0.4817617839
H       -2.5312458144     0.8699340169     0.4818736744
6
# Point -1 Energy = 0.007200900000015054
C       -4.4741759380     0.5344411980     0.0001804714
C       -3.3296714061     1.1958383658     -0.0002568519
H       -5.3856603712     0.9178242053     -0.5572245404
H       -4.5971669930     -0.4472405226     0.5572262259
H       -3.2228814961     2.0858864555     -0.5070011018
H       -2.5051537955     0.8438802981     0.5070757969
6
# Point 0 Energy = 0
C       -4.4913704873     0.5244062385     0.0002185548
C       -3.3468663940     1.1858040014     -0.0002181026
H       -5.3593071720     0.8921807099     -0.5321908950
H       -4.6061391046     -0.4114544652     0.5321543649
H       -3.2320974947     2.1216643106     -0.5321545484
H       -2.4789293474     0.8180292049     0.5321906263
6
# Point 1 Energy = 0.007200869999991255
C       -4.5085652390     0.5143716242     0.0002569004
C       -3.3640608836     1.1757687688     -0.0001804636
H       -5.3330835214     0.8663300261     -0.5070762251
H       -4.6153551931     -0.3756770102     0.5070014130
H       -3.2410696430     2.1574509882     -0.5572265355
H       -2.4525755199     0.7923856030     0.5572249107
6
# Point 2 Energy = 0.029358899999991195
C       -4.5257594626     0.5043367670     0.0002942545
C       -3.3812545286     1.1657327453     -0.0001441047
H       -5.3069922041     0.8402765613     -0.4818745309
H       -4.6248131239     -0.3399121147     0.4817624014
H       -3.2497958877     2.1932426664     -0.5822218148
H       -2.4260947931     0.7669533748     0.5821837946

    This sampling was finished on:   2020-07-28 16:52:28
=------------------------------------------------------------------------------=
Sampling finished.
=------------------------------------------------------------------------------=