6
# Point -3 Energy = 0.0219487299999912
C       -4.4933062115     0.5277023432     0.0051676685
C       -3.3493645271     1.1900700139     0.0033494453
H       -5.4221826463     0.9930187982     -0.2995039659
H       -4.5418005524     -0.5145597040     0.2938452855
H       -3.1379847103     1.9622753535     -0.7253113080
H       -2.5700713524     0.9721231953     0.7224528746
6
# Point -2 Energy = 0.00976623999999049
C       -4.4927594026     0.5267728520     0.0034329718
C       -3.3485041360     1.1886003133     0.0023796051
H       -5.4047542807     0.9659059862     -0.3806787948
H       -4.5595205616     -0.4870740333     0.3771210796
H       -3.1722073093     2.0209115485     -0.6670363403
H       -2.5369643098     0.9155133335     0.6647814786
6
# Point -1 Energy = 0.0024390799999878254
C       -4.4921068240     0.5256617061     0.0017691127
C       -3.3476646995     1.1871665709     0.0011777578
H       -5.3837236555     0.9321952257     -0.4584733423
H       -4.5810418140     -0.4526040332     0.4568084412
H       -3.2036764950     2.0742136394     -0.6024499680
H       -2.5064965118     0.8639968913     0.6011679986
6
# Point 0 Energy = 0
C       -4.4913704873     0.5244062385     0.0002185548
C       -3.3468663940     1.1858040014     -0.0002181026
H       -5.3593071720     0.8921807099     -0.5321908950
H       -4.6061391046     -0.4114544652     0.5321543649
H       -3.2320974947     2.1216643106     -0.5321545484
H       -2.4789293474     0.8180292049     0.5321906263
6
# Point 1 Energy = 0.0024390799999878254
C       -4.4905718593     0.5230431102     -0.0011779935
C       -3.3461300235     1.1845484732     -0.0017687996
H       -5.3317400087     0.8462132778     -0.6011679427
H       -4.6345603054     -0.3640036754     0.6024500745
H       -3.2571948435     2.1628140020     -0.4568085282
H       -2.4545129596     0.7780148122     0.4584731896
6
# Point 2 Energy = 0.00976623999999049
C       -4.4897322265     0.5216090236     -0.0023799949
C       -3.3454775288     1.1834374668     -0.0034322870
H       -5.3012720585     0.7946970317     -0.6647813634
H       -4.6660297233     -0.3107016156     0.6670364885
H       -3.2787161810     2.1972839810     -0.3771213271
H       -2.4334822819     0.7443041125     0.3806784840
6
# Point 3 Energy = 0.0219487299999912
C       -4.4888716110     0.5201389262     -0.0033498969
C       -3.3449307599     1.1825080350     -0.0051665638
H       -5.2681648022     0.7380874459     -0.7224527251
H       -4.7002526502     -0.2520654680     0.7253114677
H       -3.2964363633     2.2247696255     -0.2938457393
H       -2.4160538134     0.7171914355     0.2995034574

    This sampling was finished on:   2020-07-28 16:52:28
=------------------------------------------------------------------------------=
Sampling finished.
=------------------------------------------------------------------------------=