6
# Point -3 Energy = 0.018666220000000067
C       -4.5349916248     0.6000698844     -0.0614770402
C       -3.3906770662     1.2617956358     -0.0613569192
H       -5.5229844930     0.7102979321     -0.4835895344
H       -4.3587255260     -0.2821977863     0.5451552732
H       -2.9950553786     2.1765407294     -0.4775234158
H       -2.7122759114     0.6641236047     0.5387916364
6
# Point -2 Energy = 0.007956370000002266
C       -4.5206976550     0.5752768634     -0.0411567409
C       -3.3762777796     1.2368204466     -0.0413458173
H       -5.4770814179     0.7731794498     -0.5042764928
H       -4.4411404658     -0.3330464040     0.5455727459
H       -3.0717278462     2.1668922620     -0.5001649850
H       -2.6277848356     0.7115073822     0.5413712901
6
# Point -1 Energy = 0.0019332499999933361
C       -4.5061124154     0.5499776774     -0.0205305922
C       -3.3616293773     1.2114119072     -0.0209053440
H       -5.4223637795     0.8339861763     -0.5205260712
H       -4.5238559852     -0.3762562249     0.5412279001
H       -3.1509745592     2.1485491571     -0.5184278481
H       -2.5497738834     0.7629613070     0.5391619554
6
# Point 0 Energy = 0
C       -4.4913704873     0.5244062385     0.0002185548
C       -3.3468663940     1.1858040014     -0.0002181026
H       -5.3593071720     0.8921807099     -0.5321908950
H       -4.6061391046     -0.4114544652     0.5321543649
H       -3.2320974947     2.1216643106     -0.5321545484
H       -2.4789293474     0.8180292049     0.5321906263
6
# Point 1 Energy = 0.0019332499999933361
C       -4.4766073509     0.4987980663     0.0209053225
C       -3.3321242978     1.1602322789     0.0205306203
H       -5.2884627342     0.9472487300     -0.5391619869
H       -4.6872621331     -0.4383391747     0.5184278895
H       -3.3143806695     2.0864661895     -0.5412278886
H       -2.4158728145     0.8762239101     0.5205260433
6
# Point 2 Energy = 0.007956379999995988
C       -4.4619589515     0.4733895358     0.0413457734
C       -3.3175390463     1.1349330849     0.0411567959
H       -5.2104518061     0.9987026444     -0.5413713039
H       -4.7665088563     -0.4566822853     0.5001650183
H       -3.3970961720     2.0432563615     -0.5455727445
H       -2.3611551678     0.9370306587     0.5042764608
6
# Point 3 Energy = 0.01866624000000172
C       -4.4475596648     0.4484143559     0.0613568548
C       -3.3032450613     1.1101400559     0.0614771223
H       -5.1259607594     1.0460864165     -0.5387916280
H       -4.8431813316     -0.4663307613     0.4775234359
H       -3.4795110933     1.9924077321     -0.5451552874
H       -2.3152520897     0.9999122009     0.4835895024

    This sampling was finished on:   2020-07-28 16:52:28
=------------------------------------------------------------------------------=
Sampling finished.
=------------------------------------------------------------------------------=