11
# Point -3 Energy = 0.09886469999999292
C       1.2651342510     -0.0005811914     0.2459739796
C       -0.0000002205     0.0019903698     -0.6240493482
H       1.3011742987     -0.8731802153     0.8856453643
H       1.3071559012     0.8750335199     0.8822965777
H       2.1882175053     -0.0051909049     -0.3942963952
C       -1.2651348068     -0.0005813528     0.2459742653
H       -0.0000002394     -0.6952816995     -1.1394780763
H       -0.0000003404     0.7011287819     -1.1346657237
H       -1.3011744974     -0.8731776201     0.8856435925
H       -2.1882157411     -0.0051902806     -0.3942945469
H       -1.3071561713     0.8750312589     0.8822953298
11
# Point -2 Energy = 0.037366559999995275
C       1.2658779660     -0.0004029469     0.2504012779
C       -0.0000001462     0.0012658728     -0.6118262375
H       1.3026120772     -0.8756693273     0.8916527521
H       1.3065671095     0.8769241194     0.8893580148
H       2.1804120708     -0.0034442840     -0.3829373702
C       -1.2658783358     -0.0004030593     0.2504014680
H       -0.0000001603     -0.7551203255     -1.1737300631
H       -0.0000002503     0.7590392387     -1.1703474359
H       -1.3026122078     -0.8756675955     0.8916515713
H       -2.1804108935     -0.0034436409     -0.3829361391
H       -1.3065672903     0.8769226144     0.8893571806
11
# Point -1 Energy = 0.008020299999998315
C       1.2665678746     -0.0002091212     0.2549098170
C       -0.0000000727     0.0006030123     -0.5995456905
H       1.3039789740     -0.8781640630     0.8977127295
H       1.3059401560     0.8788010181     0.8965346384
H       2.1725449415     -0.0017137520     -0.3715036049
C       -1.2665680592     -0.0002091858     0.2549099119
H       -0.0000000806     -0.8146524672     -1.2082451399
H       -0.0000001570     0.8166212435     -1.2064710121
H       -1.3039790384     -0.8781631963     0.8977121393
H       -2.1725443522     -0.0017130891     -0.3715029899
H       -1.3059402467     0.8788002668     0.8965342203
11
# Point 0 Energy = 0
C       1.2672042126     0.0000000000     0.2594997522
C       0.0000000000     0.0000000000     -0.5872081259
H       1.3052750505     -0.8806643351     0.9038259677
H       1.3052750505     0.8806643351     0.9038259677
H       2.1646165232     0.0000000000     -0.3599948239
C       -1.2672042126     -0.0000000181     0.2594997522
H       0.0000000000     -0.8738729764     -1.2430302913
H       -0.0000000606     0.8738729764     -1.2430302913
H       -1.3052750505     -0.8806643351     0.9038259677
H       -2.1646165232     0.0000006841     -0.3599948239
H       -1.3052750505     0.8806643351     0.9038259677
11
# Point 1 Energy = 0.006036149999985696
C       1.2677872577     0.0002241548     0.2641712267
C       0.0000000719     -0.0005450022     -0.5748139060
H       1.3065004381     -0.8831699487     0.9099932330
H       1.3045718615     0.8825142865     0.9112314032
H       2.1566272276     0.0016962595     -0.3484108199
C       -1.2677870738     0.0002241821     0.2641711321
H       0.0000000815     -0.9327768945     -1.2780920971
H       0.0000000388     0.9307924439     -1.2800193656
H       -1.3065003754     -0.8831708170     0.9099938227
H       -2.1566278182     0.0016969661     -0.3484114338
H       -1.3045717702     0.8825150354     0.9112318237
11
# Point 2 Energy = 0.021218060000009586
C       1.2683172934     0.0004631023     0.2689243736
C       0.0000001430     -0.0010338580     -0.5623633869
H       1.3076552765     -0.8856806209     0.9162153691
H       1.3038306610     0.8843511718     0.9187502468
H       2.1485774594     0.0033743032     -0.3367514173
C       -1.2683169264     0.0004631738     0.2689241849
H       0.0000001641     -0.9913594620     -1.3134367425
H       0.0000001412     0.9873775141     -1.3174326030
H       -1.3076551529     -0.8856823593     0.9162165480
H       -2.1485786420     0.0033750336     -0.3367526440
H       -1.3038304780     0.8843526673     0.9187510902
11
# Point 3 Energy = 0.04223186000000112
C       1.2687945758     0.0007166191     0.2737593160
C       0.0000002133     -0.0014684365     -0.5498569705
H       1.3087396565     -0.8881959988     0.9224932794
H       1.3030514725     0.8861753623     0.9263817158
H       2.1404676051     0.0050334055     -0.3250164410
C       -1.2687940263     0.0007167336     0.2737590334
H       0.0000002478     -1.0496161416     -1.3490700188
H       0.0000002464     1.0436259679     -1.3552646475
H       -1.3087394735     -0.8881986088     0.9224950469
H       -2.1404693809     0.0050341613     -0.3250182792
H       -1.3030511972     0.8861776020     0.9263829845
11
# Point 4 Energy = 0.06684455999999273
C       1.2692193679     0.0009844977     0.2786761642
C       0.0000002828     -0.0018505980     -0.5372950546
H       1.3097536791     -0.8907156720     0.9288279081
H       1.3022343244     0.8879872841     0.9341249615
H       2.1322980450     0.0066728551     -0.3132057518
C       -1.2692186367     0.0009846543     0.2786757882
H       0.0000003326     -1.1075425803     -1.3849973126
H       0.0000003546     1.0995354772     -1.3935104057
H       -1.3097534385     -0.8907191554     0.9288302637
H       -2.1323004154     0.0066736377     -0.3132082003
H       -1.3022339563     0.8879902655     0.9341266582

    This sampling was finished on:   2020-07-02 18:36:53
=------------------------------------------------------------------------------=
Sampling finished.
=------------------------------------------------------------------------------=