11
# Point -4 Energy = 0.061271579999996106
C       1.2615357337     0.0373508278     0.2758816668
C       -0.0000003293     0.0189751261     -0.5423763608
H       1.3713327789     -0.8073063626     0.9652116502
H       1.1767755210     0.8091393477     1.0431834692
H       2.1279990410     -0.0264177579     -0.3752768055
C       -1.2615365062     0.0373548091     0.2758809481
H       -0.0000014313     -0.6207772814     -1.4398323880
H       0.0000017241     0.5762755808     -1.4947481980
H       -1.3713432332     -0.8072996496     0.9652135568
H       -2.1279977015     -0.0264329439     -0.3752781244
H       -1.1767656578     0.8091389698     1.0431856044
11
# Point -3 Energy = 0.033455420000024105
C       1.2649957179     0.0267434082     0.2726941969
C       -0.0000002495     0.0126432408     -0.5496241054
H       1.3585014279     -0.8271719155     0.9513944571
H       1.2112660598     0.8297010670     1.0103332302
H       2.1379899450     -0.0204397442     -0.3731042023
C       -1.2649962907     0.0267462803     0.2726936944
H       -0.0000011440     -0.6924137857     -1.3936321143
H       0.0000013407     0.6621090417     -1.4383356365
H       -1.3585091913     -0.8271671178     0.9513960050
H       -2.1379890556     -0.0204509728     -0.3731053991
H       -1.2112586208     0.8297011640     1.0103348927
11
# Point -2 Energy = 0.01446027999998023
C       1.2669745383     0.0170058130     0.2688463753
C       -0.0000001685     0.0074241323     -0.5597787065
H       1.3429570618     -0.8460535445     0.9365121487
H       1.2438391607     0.8484227467     0.9760204836
H       2.1474223790     -0.0139796302     -0.3697640936
C       -1.2669749170     0.0170076537     0.2688460647
H       -0.0000008053     -0.7588530887     -1.3452912846
H       0.0000009065     0.7406409317     -1.3771158258
H       -1.3429621848     -0.8460505011     0.9365132635
H       -2.1474218593     -0.0139868958     -0.3697650309
H       -1.2438341719     0.8484230488     0.9760216245
11
# Point -1 Energy = 0.0035170699999866883
C       1.2676458386     0.0080991136     0.2644189296
C       -0.0000000855     0.0032293334     -0.5724519807
H       1.3250786355     -0.8638996970     0.9206334234
H       1.2750034890     0.8653923539     0.9404545189
H       2.1562981512     -0.0071392170     -0.3653513223
C       -1.2676460268     0.0080999927     0.2644187864
H       -0.0000004213     -0.8194909762     -1.2950233169
H       0.0000004355     0.8113579085     -1.3117912853
H       -1.3250811699     -0.8638982517     0.9206340237
H       -2.1562979270     -0.0071425117     -0.3653518602
H       -1.2750009799     0.8653926174     0.9404551023
11
# Point 0 Energy = 0
C       1.2672042126     0.0000000000     0.2594997522
C       0.0000000000     0.0000000000     -0.5872081259
H       1.3052750505     -0.8806643351     0.9038259677
H       1.3052750505     0.8806643351     0.9038259677
H       2.1646165232     0.0000000000     -0.3599948239
C       -1.2672042126     -0.0000000181     0.2594997522
H       0.0000000000     -0.8738729764     -1.2430302913
H       -0.0000000606     0.8738729764     -1.2430302913
H       -1.3052750505     -0.8806643351     0.9038259677
H       -2.1646165232     0.0000006841     -0.3599948239
H       -1.3052750505     0.8806643351     0.9038259677
11
# Point 1 Energy = 0.003349629999988224
C       1.2658137716     -0.0073050388     0.2541843184
C       0.0000000880     -0.0023055592     -0.6036505933
H       1.2838915163     -0.8963072973     0.8861675598
H       1.3350778436     0.8942648851     0.8663075742
H       2.1723699193     0.0073718708     -0.3537979136
C       -1.2658135855     -0.0073058936     0.2541844384
H       0.0000004500     -0.9217012625     -1.1895330677
H       -0.0000005710     0.9279566040     -1.1714938991
H       -1.2838890395     -0.8963085923     0.8861668719
H       -2.1723700739     0.0073765403     -0.3537972418
H       -1.3350803794     0.8942644095     0.8663069717
11
# Point 2 Energy = 0.01301614999999856
C       1.2636493621     -0.0138219628     0.2485686928
C       0.0000001781     -0.0037157177     -0.6213733869
H       1.2612788970     -0.9107948145     0.8677374225
H       1.3648161181     0.9061953258     0.8280508690
H       2.1795611296     0.0149231734     -0.3468836322
C       -1.2636489925     -0.0138235963     0.2485689110
H       0.0000009195     -0.9627863938     -1.1347266835
H       -0.0000010859     0.9734959041     -1.0978006209
H       -1.2612740045     -0.9107972566     0.8677359593
H       -2.1795613702     0.0149318328     -0.3468821615
H       -1.3648212119     0.9061941716     0.8280496492
11
# Point 3 Energy = 0.02849071999999353
C       1.2609498752     -0.0195520175     0.2427416969
C       0.0000002698     -0.0042511225     -0.6398989673
H       1.2378799903     -0.9241008524     0.8486114016
H       1.3949541066     0.9164341491     0.7891703600
H       2.1862281690     0.0226119918     -0.3394536782
C       -1.2609493254     -0.0195543732     0.2427419933
H       0.0000013991     -0.9970184737     -1.0787314921
H       -0.0000015964     1.0104788990     -1.0224625931
H       -1.2378727459     -0.9241042959     0.8486090775
H       -2.1862284286     0.0226246427     -0.3394512897
H       -1.3949617744     0.9164321186     0.7891685100
11
# Point 4 Energy = 0.049325539999998114
C       1.2579574043     -0.0244934910     0.2367892193
C       0.0000003620     -0.0039263569     -0.6587703429
H       1.2141201419     -0.9362073871     0.8288702519
H       1.4259051108     0.9249403024     0.7497472838
H       2.1924322765     0.0304058796     -0.3317174260
C       -1.2579566794     -0.0244965131     0.2367895767
H       0.0000018798     -1.0243716515     -1.0216430787
H       -0.0000020931     1.0390018508     -0.9459182308
H       -1.2141106112     -0.9362116884     0.8288669856
H       -2.1924324912     0.0304225202     -0.3317140096
H       -1.4259153611     0.9249372010     0.7497447895
11
# Point 5 Energy = 0.07506789999999341
C       1.2549034783     -0.0286418525     0.2307951759
C       0.0000004531     -0.0027480891     -0.6775706085
H       1.1903823182     -0.9471038050     0.8085973932
H       1.4580116188     0.9316562450     0.7098327597
H       2.1982542615     0.0382800375     -0.3238744941
C       -1.2549025853     -0.0286454849     0.2307955804
H       0.0000023530     -1.0448806377     -0.9635436668
H       -0.0000025665     1.0592405334     -0.8685398835
H       -1.1903705680     -0.9471088222     0.8085931087
H       -2.1982543720     0.0383006626     -0.3238699490
H       -1.4580244516     0.9316518788     0.7098296031

    This sampling was finished on:   2020-07-06 18:47:01
=------------------------------------------------------------------------------=
Sampling finished.
=------------------------------------------------------------------------------=