11
# Point -3 Energy = 0.06488944999998125
C       1.2446352573     -0.0001820120     0.2444277972
C       -0.0188164360     -0.0000308136     -0.5873580207
H       1.2983816685     -0.9895792054     0.9721639800
H       1.2975289090     0.9880944207     0.9738454835
H       2.2373965050     0.0008363749     -0.4399224551
C       -1.2896287979     0.0002268974     0.2743622055
H       -0.0242388285     -0.8739452228     -1.2431059862
H       -0.0239505673     0.8738040328     -1.2432147583
H       -1.3144491609     -0.7711229091     0.8357471148
H       -2.0917431834     -0.0006512344     -0.2801746784
H       -1.3151154265     0.7725503373     0.8342743365
11
# Point -2 Energy = 0.028184799999991128
C       1.2521746714     -0.0001257401     0.2494727282
C       -0.0125456743     -0.0000136982     -0.5872744443
H       1.3004281646     -0.9533440502     0.9493531114
H       1.2998799289     0.9523583976     0.9504548283
H       2.2131449690     0.0005389845     -0.4132707907
C       -1.2821697798     0.0001457778     0.2694343806
H       -0.0161618314     -0.8739054744     -1.2430638756
H       -0.0159699552     0.8738427046     -1.2431123290
H       -1.3111357190     -0.8077032944     0.8584126781
H       -2.1160437884     -0.0004563259     -0.3067645090
H       -1.3116010465     0.8086633846     0.8574032408
11
# Point -1 Energy = 0.006951490000005833
C       1.2596976086     -0.0000651828     0.2544972303
C       -0.0062732545     -0.0000034109     -0.5872244962
H       1.3027254855     -0.9170387932     0.9265741572
H       1.3024616060     0.9165484517     0.9271145976
H       2.1888851443     0.0002598192     -0.3866274113
C       -1.2746949907     0.0000702420     0.2644796721
H       -0.0080817017     -0.8738813582     -1.2430386879
H       -0.0079858770     0.8738657193     -1.2430508380
H       -1.3080780238     -0.8442174475     0.8811051860
H       -2.1403348670     -0.0002386377     -0.3333719410
H       -1.3083211903     0.8447012640     0.8805875501
11
# Point 0 Energy = 0
C       1.2672042126     0.0000000000     0.2594997522
C       0.0000000000     0.0000000000     -0.5872081259
H       1.3052750505     -0.8806643351     0.9038259677
H       1.3052750505     0.8806643351     0.9038259677
H       2.1646165232     0.0000000000     -0.3599948239
C       -1.2672042126     -0.0000000181     0.2594997522
H       0.0000000000     -0.8738729764     -1.2430302913
H       -0.0000000606     0.8738729764     -1.2430302913
H       -1.3052750505     -0.8806643351     0.9038259677
H       -2.1646165232     0.0000006841     -0.3599948239
H       -1.3052750505     0.8806643351     0.9038259677
11
# Point 1 Energy = 0.006951289999989285
C       1.2746946545     0.0000701394     0.2644786986
C       0.0062732660     -0.0000034817     -0.5872253165
H       1.3080781479     -0.8442216274     0.8811073219
H       1.3083212721     0.8447057590     0.8805901607
H       2.1403387301     -0.0002393371     -0.3333754269
C       -1.2596972498     -0.0000653228     0.2544962567
H       0.0080817118     -0.8738803631     -1.2430386416
H       0.0079857647     0.8738644421     -1.2430506908
H       -1.3027256420     -0.9170429612     0.9265763044
H       -2.1888889976     0.0002604948     -0.3866308784
H       -1.3024617182     0.9165529242     0.9271172308
11
# Point 2 Energy = 0.02818311000000051
C       1.2821691300     0.0001455559     0.2694324340
C       0.0125457204     -0.0000138400     -0.5872760848
H       1.3111359346     -0.8077116660     0.8584169387
H       1.3116011796     0.8086723970     0.8574084389
H       2.1160515241     -0.0004570477     -0.3067714997
C       -1.2521739312     -0.0001260033     0.2494707810
H       0.0161618718     -0.8739034844     -1.2430637826
H       0.0159698694     0.8738401500     -1.2431120345
H       -1.3004285099     -0.9533523739     0.9493574170
H       -2.2131526656     0.0005396580     -0.4132777060
H       -1.2998801837     0.9523673201     0.9504601169
11
# Point 3 Energy = 0.06488364999999874
C       1.2896278571     0.0002265574     0.2743592864
C       0.0188165398     -0.0000310265     -0.5873604809
H       1.3144494351     -0.7711354836     0.8357534887
H       1.3151155808     0.7725638899     0.8342820985
H       2.0917548010     -0.0006519857     -0.2801851927
C       -1.2446341131     -0.0001823996     0.2444248767
H       0.0242389193     -0.8739422380     -1.2431058461
H       0.0239505259     0.8738002006     -1.2432143162
H       -1.2983822346     -0.9895916722     0.9721704553
H       -2.2374080349     0.0008370527     -0.4399327999
H       -1.2975293371     0.9881077709     0.9738534489

    This sampling was finished on:   2020-07-02 18:36:53
=------------------------------------------------------------------------------=
Sampling finished.
=------------------------------------------------------------------------------=