11
# Point -10 Energy = 0.061003549999995244
C       1.5271305564     -0.0064474267     0.2693873249
C       -0.0000000788     0.0229661771     -0.0598477352
H       1.9294562655     -0.8837108964     0.7758622012
H       1.9851894161     0.8896675216     0.6890418964
H       1.8650787967     -0.0609850602     -0.7708735410
C       -1.5271308173     -0.0064482641     0.2693865814
H       0.0000010853     -0.7902372394     -0.7957960800
H       -0.0000004778     0.8902240924     -0.7301465143
H       -1.9294566972     -0.8837117626     0.7758612592
H       -1.8650799468     -0.0609827921     -0.7708738486
H       -1.9851881628     0.8896663164     0.6890434749
11
# Point -9 Energy = 0.049876020000027665
C       1.5103281441     -0.0064923824     0.2682267775
C       -0.0000000739     0.0225055816     -0.1157742740
H       1.8792156986     -0.8832461192     0.8007853481
H       1.9360993276     0.8895226196     0.7211597118
H       1.9148209141     -0.0587948052     -0.7476244737
C       -1.5103284075     -0.0064931276     0.2682261200
H       0.0000009751     -0.7960574918     -0.8451276685
H       -0.0000004414     0.8915744836     -0.7831473892
H       -1.8792161107     -0.8832468846     0.8007845404
H       -1.9148219400     -0.0587927311     -0.7476246873
H       -1.9360981466     0.8895215231     0.7211610137
11
# Point -8 Energy = 0.03989343999998596
C       1.4914827004     -0.0062911548     0.2670110566
C       -0.0000000682     0.0214676195     -0.1713122641
H       1.8259910092     -0.8827531829     0.8226477680
H       1.8822003682     0.8893242256     0.7515803646
H       1.9609089652     -0.0551718400     -0.7201725529
C       -1.4914829597     -0.0062918094     0.2670104836
H       0.0000008659     -0.8032710082     -0.8930397348
H       -0.0000004036     0.8915883735     -0.8367359170
H       -1.8259913951     -0.8827538483     0.8226470865
H       -1.9609098649     -0.0551699508     -0.7201726863
H       -1.8821992780     0.8893232417     0.7515814147
11
# Point -7 Energy = 0.03102216999999996
C       1.4705888118     -0.0059039326     0.2657730653
C       -0.0000000619     0.0199093146     -0.2263448605
H       1.7698726711     -0.8822602767     0.8416743857
H       1.8237085208     0.8890122927     0.7799213677
H       2.0030404796     -0.0504634110     -0.6885696602
C       -1.4705890603     -0.0059044983     0.2657725750
H       0.0000007575     -0.8113706573     -0.9398858693
H       -0.0000003649     0.8906929513     -0.8903222707
H       -1.7698730247     -0.8822608441     0.8416738218
H       -2.0030412527     -0.0504616979     -0.6885697281
H       -1.8237075369     0.8890114252     0.7799221921
11
# Point -6 Energy = 0.023234619999996653
C       1.4476434409     -0.0053681919     0.2645480027
C       -0.0000000549     0.0178981525     -0.2807536037
H       1.7109579095     -0.8817947045     0.8580087717
H       1.7608462223     0.8885385509     0.8059113636
H       2.0409255912     -0.0448917985     -0.6528905616
C       -1.4476436719     -0.0053686709     0.2645475927
H       0.0000006497     -0.8200247832     -0.9858319569
H       -0.0000003251     0.8891597385     -0.9435243163
H       -1.7109582249     -0.8817951769     0.8580083166
H       -2.0409262391     -0.0448902531     -0.6528905787
H       -1.7608453581     0.8885378031     0.8059119889
11
# Point -5 Energy = 0.016538519999997447
C       1.4226466258     -0.0047085709     0.2633721787
C       -0.0000000473     0.0155035872     -0.3344180642
H       1.6493516965     -0.8813807323     0.8717507262
H       1.6938426642     0.8878644674     0.8293475663
H       2.0742874761     -0.0386118244     -0.6132312283
C       -1.4226468329     -0.0047089656     0.2633718462
H       0.0000005422     -0.8290014724     -1.0309416118
H       -0.0000002844     0.8871718872     -0.9960735750
H       -1.6493519686     -0.8813811133     0.8717503708
H       -2.0742880017     -0.0386104388     -0.6132312094
H       -1.6938419304     0.8878638420     0.8293480194
11
# Point -4 Energy = 0.010934950000006438
C       1.3956022356     -0.0039419324     0.2622822444
C       -0.0000000391     0.0127931432     -0.3872156085
H       1.5851676825     -0.8810387920     0.8829753555
H       1.6229343342     0.8869598008     0.8500737422
H       2.1028632673     -0.0317396637     -0.5697079800
C       -1.3956024126     -0.0039422455     0.2622819863
H       0.0000004349     -0.8381295580     -1.0752187137
H       -0.0000002426     0.8848581300     -1.0477672088
H       -1.5851679068     -0.8810390859     0.8829750903
H       -2.1028636747     -0.0317384305     -0.5697079394
H       -1.6229337393     0.8869592999     0.8500740505
11
# Point -3 Energy = 0.0064154599999852735
C       1.3665187554     -0.0030801806     0.2613146587
C       -0.0000000303     0.0098306209     -0.4390213221
H       1.5185290551     -0.8807853273     0.8917436311
H       1.5483656806     0.8858014973     0.8679680158
H       2.1264053399     -0.0243682881     -0.5224570544
C       -1.3665188963     -0.0030804149     0.2613144713
H       0.0000003273     -0.8472770805     -1.1186302704
H       -0.0000001995     0.8823114569     -1.0984417590
H       -1.5185292274     -0.8807855390     0.8917434468
H       -2.1264056346     -0.0243672006     -0.5224570056
H       -1.5483652307     0.8858011219     0.8679682066
11
# Point -2 Energy = 0.0030064199999912944
C       1.3354100762     -0.0021319359     0.2605052877
C       -0.0000000209     0.0066753289     -0.4897081274
H       1.4495692884     -0.8806329409     0.8981087106
H       1.4703897841     0.8843728001     0.8829357842
H       2.1446828975     -0.0165761841     -0.4716343795
C       -1.3354101754     -0.0021320946     0.2605051671
H       0.0000002192     -0.8563387149     -1.1611195239
H       -0.0000001550     0.8796001688     -1.1479580467
H       -1.4495694056     -0.8806330760     0.8981085974
H       -2.1446830861     -0.0165752361     -0.4716343353
H       -1.4703894831     0.8843725506     0.8829358846
11
# Point -1 Energy = 0.0008003099999882579
C       1.3022962548     -0.0011035898     0.2598890751
C       -0.0000000108     0.0033818379     -0.5391471202
H       1.3784327405     -0.8805906741     0.9021200042
H       1.3892689385     0.8826625070     0.8949054751
H       2.1574837948     -0.0084324718     -0.4174153965
C       -1.3022963069     -0.0011036764     0.2598890172
H       0.0000001103     -0.8652280977     -1.2026139257
H       -0.0000001088     0.8767748445     -1.1961922059
H       -1.3784328000     -0.8805907384     0.9021199525
H       -2.1574838849     -0.0084316580     -0.4174153689
H       -1.3892687881     0.8826623829     0.8949055120
11
# Point 0 Energy = 0
C       1.2672042126     0.0000000000     0.2594997522
C       0.0000000000     0.0000000000     -0.5872081259
H       1.3052750505     -0.8806643351     0.9038259677
H       1.3052750505     0.8806643351     0.9038259677
H       2.1646165232     0.0000000000     -0.3599948239
C       -1.2672042126     -0.0000000181     0.2594997522
H       0.0000000000     -0.8738729764     -1.2430302913
H       -0.0000000606     0.8738729764     -1.2430302913
H       -1.3052750505     -0.8806643351     0.9038259677
H       -2.1646165232     0.0000006841     -0.3599948239
H       -1.3052750505     0.8806643351     0.9038259677
11
# Point 1 Energy = 0.0009475400000127365
C       1.2301648656     0.0011751156     0.2593688601
C       0.0000000115     -0.0034252886     -0.6337659575
H       1.2302569936     -0.8808565458     0.9032756977
H       1.2186825204     0.8783759083     0.9096649792
H       2.1659113514     0.0086634635     -0.2995827088
C       -1.2301648088     0.0011751620     0.2593689132
H       -0.0000001121     -0.8822168239     -1.2822779070
H       -0.0000000101     0.8709261111     -1.2883648197
H       -1.2302569330     -0.8808564882     0.9032757398
H       -2.1659112706     0.0086640217     -0.2995827464
H       -1.2186826685     0.8783760303     0.9096649683
11
# Point 2 Energy = 0.004115630000001147
C       1.1912157123     0.0024187726     0.2595264511
C       0.0000000239     -0.0068533886     -0.6786958547
H       1.1535490998     -0.8811674789     0.9005202547
H       1.1297736295     0.8757986419     0.9124073140
H       2.1612210453     0.0175034073     -0.2364059975
C       -1.1912155944     0.0024188792     0.2595265521
H       -0.0000002264     -0.8902115377     -1.3202616437
H       0.0000000432     0.8679580157     -1.3320936225
H       -1.1535489783     -0.8811673709     0.9005203295
H       -2.1612208937     0.0175038423     -0.2364060818
H       -1.1297739217     0.8757988831     0.9124073177
11
# Point 3 Energy = 0.010223099999990382
C       1.1504053678     0.0037283722     0.2600014255
C       0.0000000371     -0.0102473854     -0.7218687551
H       1.0753385542     -0.8815953513     0.8956145657
H       1.0388463956     0.8729378380     0.9120545828
H       2.1504246441     0.0264670569     -0.1707121562
C       -1.1504051850     0.0037285344     0.2600015689
H       -0.0000003438     -0.8978112893     -1.3568844383
H       0.0000000997     0.8649825257     -1.3741187688
H       -1.0753383722     -0.8815952005     0.8956146638
H       -2.1504244323     0.0264673707     -0.1707122953
H       -1.0388468260     0.8729381948     0.9120546259
11
# Point 4 Energy = 0.020380430000003003
C       1.1077909699     0.0051015927     0.2608204877
C       0.0000000515     -0.0135742688     -0.7631579148
H       0.9958230997     -0.8821363567     0.8886182015
H       0.9462074783     0.8698018794     0.9086251850
H       2.1334294251     0.0355036198     -0.1027652741
C       -1.1077907186     0.0051018055     0.2608206679
H       -0.0000004647     -0.9049764334     -1.3920485676
H       0.0000001599     0.8620088377     -1.4143458976
H       -0.9958228582     -0.8821361708     0.8886183140
H       -2.1334291643     0.0355038130     -0.1027654748
H       -0.9462080392     0.8698023475     0.9086252915
11
# Point 5 Energy = 0.0365060300000124
C       1.0634382543     0.0065362511     0.2620079325
C       0.0000000670     -0.0168047079     -0.8024401579
H       0.9152101882     -0.8827849217     0.8795960517
H       0.8521711383     0.8664018768     0.9021540160
H       2.1101725517     0.0445640599     -0.0328447472
C       -1.0634379315     0.0065365093     0.2620081437
H       -0.0000005901     -0.9116727663     -1.4256571757
H       0.0000002247     0.8590424902     -1.4526844081
H       -0.9152098890     -0.8827847087     0.8795961700
H       -2.1101722536     0.0445641321     -0.0328450154
H       -0.8521718205     0.8664024514     0.9021542093
11
# Point 6 Energy = 0.061862199999993095
C       1.0174214627     0.0080301962     0.2635854494
C       0.0000000839     -0.0199128437     -0.8395971484
H       0.8337158814     -0.8835339404     0.8686188016
H       0.7570578896     0.8627513453     0.8926921716
H       2.0806224214     0.0536009992     0.0387563107
C       -1.0174210659     0.0080304940     0.2635856856
H       -0.0000007210     -0.9178709496     -1.4576156794
H       0.0000002948     0.8560861044     -1.4890479338
H       -0.8337155266     -0.8835337087     0.8686189174
H       -2.0806220982     0.0536009486     0.0387559701
H       -0.7570586826     0.8627520208     0.8926924742

    This sampling was finished on:   2020-07-06 18:47:01
=------------------------------------------------------------------------------=
Sampling finished.
=------------------------------------------------------------------------------=