11
# Point -4 Energy = 0.06113246000001027
C       1.3127006855     -0.0015242600     0.3682821216
C       0.0000009976     0.0004643702     -0.5163351001
H       1.0730526684     -0.9382141779     0.8639002462
H       1.0844526297     0.9406560853     0.8590468561
H       1.9876315622     -0.0044762470     -0.4811951708
C       -1.3126986918     -0.0015237672     0.3682816093
H       -0.0000001659     -0.8669836095     -1.1851315373
H       0.0000011639     0.8736359759     -1.1775572764
H       -1.0730541479     -0.9382135869     0.8639016821
H       -1.9876332369     -0.0044784134     -0.4811930587
H       -1.0844535254     0.9406582966     0.8590446469
11
# Point -3 Energy = 0.033394210000011526
C       1.3013519028     -0.0010839866     0.3381473433
C       0.0000007175     0.0005607143     -0.5369589776
H       1.1371747333     -0.9302339431     0.8795409124
H       1.1461836726     0.9320609688     0.8754462825
H       2.0442562941     -0.0038517459     -0.4544587246
C       -1.3013504706     -0.0010836725     0.3381469558
H       -0.0000001378     -0.8683816417     -1.2026863614
H       0.0000008125     0.8740379819     -1.1966618223
H       -1.1371758505     -0.9302333499     0.8795418269
H       -2.0442573650     -0.0038531571     -0.4544570009
H       -1.1461843695     0.9320624978     0.8754445847
11
# Point -2 Energy = 0.014220729999976811
C       1.2899862043     -0.0006869439     0.3097592489
C       0.0000004392     0.0005072306     -0.5558586294
H       1.1981188482     -0.9171163909     0.8911594021
H       1.2044102337     0.9183232869     0.8881216956
H       2.0926481961     -0.0028711592     -0.4243106494
C       -1.2899853176     -0.0006867637     0.3097590053
H       -0.0000001272     -0.8700064663     -1.2183989725
H       0.0000004717     0.8742013869     -1.2141570170
H       -1.1981195516     -0.9171159188     0.8911598917
H       -2.0926487822     -0.0028718650     -0.4243094538
H       -1.2044106753     0.9183242694     0.8881204974
11
# Point -1 Energy = 0.00341337999998359
C       1.2786036363     -0.0003272121     0.2836330273
C       0.0000002015     0.0003149265     -0.5725187561
H       1.2540042621     -0.9002856599     0.8990270965
H       1.2572795239     0.9008816738     0.8973567667
H       2.1323242868     -0.0015733720     -0.3925944699
C       -1.2786032237     -0.0003271390     0.2836329135
H       -0.0000000812     -0.8718447468     -1.2317548912
H       0.0000001831     0.8741388137     -1.2295262372
H       -1.2540045912     -0.9002853945     0.8990272910
H       -2.1323245251     -0.0015733868     -0.3925938561
H       -1.2572797331     0.9008821633     0.8973561344
11
# Point 0 Energy = 0
C       1.2672042126     0.0000000000     0.2594997522
C       0.0000000000     0.0000000000     -0.5872081259
H       1.3052750505     -0.8806643351     0.9038259677
H       1.3052750505     0.8806643351     0.9038259677
H       2.1646165232     0.0000000000     -0.3599948239
C       -1.2672042126     -0.0000000181     0.2594997522
H       0.0000000000     -0.8738729764     -1.2430302913
H       -0.0000000606     0.8738729764     -1.2430302913
H       -1.3052750505     -0.8806643351     0.9038259677
H       -2.1646165232     0.0000006841     -0.3599948239
H       -1.3052750505     0.8806643351     0.9038259677
11
# Point 1 Energy = 0.003141159999998422
C       1.2557879439     0.0002974933     0.2369822423
C       -0.0000001750     -0.0004245116     -0.6003037519
H       1.3528120753     -0.8587485070     0.9061162880
H       1.3493156466     0.8581690430     0.9080814397
H       2.1908842453     0.0018187239     -0.3266816805
C       -1.2557883123     0.0002973941     0.2369823434
H       0.0000001077     -0.8760715221     -1.2526087864
H       -0.0000002719     0.8734227110     -1.2550390445
H       -1.3528117803     -0.8587488187     0.9061161672
H       -2.1908840935     0.0018201262     -0.3266823247
H       -1.3493154464     0.8581685340     0.9080821260
11
# Point 2 Energy = 0.012266979999978389
C       1.2443548442     0.0005663710     0.2158045457
C       -0.0000003299     -0.0009474231     -0.6120814188
H       1.3972873051     -0.8348449166     0.9062798142
H       1.3901120139     0.8337037739     0.9104954130
H       2.2120958008     0.0038574269     -0.2927196514
C       -1.2443555476     0.0005661977     0.2158047382
H       0.0000002356     -0.8784225471     -1.2607729823
H       -0.0000004590     0.8728050648     -1.2658209289
H       -1.3972867411     -0.8348455795     0.9062796302
H       -2.2120955699     0.0038595722     -0.2927209699
H       -1.3901116126     0.8337027258     0.9104968290
11
# Point 3 Energy = 0.027093639999989705
C       1.2329049291     0.0008061559     0.1957839952
C       -0.0000004687     -0.0015565405     -0.6227236453
H       1.4391616572     -0.8091741871     0.9045804728
H       1.4281706193     0.8074922702     0.9113146607
H       2.2289189324     0.0060866812     -0.2581632259
C       -1.2329059404     0.0008059150     0.1957842719
H       0.0000003793     -0.8809049951     -1.2677154014
H       -0.0000006266     0.8720403574     -1.2755479764
H       -1.4391608449     -0.8091752351     0.9045802742
H       -2.2289186863     0.0060895953     -0.2581652474
H       -1.4281700110     0.8074906489     0.9113168405
11
# Point 4 Energy = 0.047525159999992184
C       1.2214382157     0.0010162612     0.1767869022
C       -0.0000005940     -0.0022399980     -0.6323640010
H       1.4787883483     -0.7818872705     0.9012073703
H       1.4638915189     0.7796891464     0.9107082646
H       2.2418492290     0.0084770307     -0.2230367500
C       -1.2214395112     0.0010159594     0.1767872582
H       0.0000005357     -0.8834980945     -1.2735799623
H       -0.0000007776     0.8711487083     -1.2843429960
H       -1.4787873046     -0.7818887333     0.9012072009
H       -2.2418490259     0.0084807381     -0.2230395013
H       -1.4638906949     0.7796869183     0.9107112334
11
# Point 5 Energy = 0.07359286999999881
C       1.2099547220     0.0011962878     0.1587196212
C       -0.0000007071     -0.0029860188     -0.6410960504
H       1.5164257605     -0.7530972471     0.8962981143
H       1.4975809530     0.7504118930     0.9087906721
H       2.2512540667     0.0109981733     -0.1873584458
C       -1.2099562797     0.0011959323     0.1587200535
H       0.0000007024     -0.8861811722     -1.2784708804
H       -0.0000009138     0.8701502460     -1.2922885760
H       -1.5164244996     -0.7530991503     0.8962980153
H       -2.2512539609     0.0110026953     -0.1873619509
H       -1.4975799040     0.7504090268     0.9087944460

    This sampling was finished on:   2020-07-02 18:36:53
=------------------------------------------------------------------------------=
Sampling finished.
=------------------------------------------------------------------------------=