11
# Point -5 Energy = 0.07576963000001058
C       1.2673646375     0.1495433528     0.2556020277
C       0.0059699279     -0.0066229223     -0.5803894613
H       1.2563094387     -0.7778167350     0.8331071765
H       1.3518768869     0.9868486169     0.9491834084
H       2.1645782466     0.0149579225     -0.3500139481
C       -1.2691477797     -0.1484311431     0.2472786677
H       -0.4144457426     -0.7879086452     -1.2180414096
H       0.3995067771     0.7738690055     -1.2359180676
H       -1.3698634595     -0.9767649917     0.9504428319
H       -2.1555331281     0.0133796197     -0.3663232162
H       -1.2366158654     0.7589465859     0.8561170095
11
# Point -4 Energy = 0.04839150999998765
C       1.2673734497     0.1191866793     0.2576938018
C       0.0048066989     -0.0042510448     -0.5829846801
H       1.2650841665     -0.7996628607     0.8484985028
H       1.3439245158     0.9658770487     0.9411498595
H       2.1653012489     0.0102969036     -0.3518913922
C       -1.2681845297     -0.1185270770     0.2511811841
H       -0.3353479023     -0.8185929507     -1.2271110846
H       0.3225399645     0.8097007309     -1.2389456094
H       -1.3552023104     -0.9573851991     0.9438256165
H       -2.1582043285     0.0078945276     -0.3655861773
H       -1.2520910339     0.7854639082     0.8652149980
11
# Point -3 Energy = 0.027162210000014397
C       1.2673628070     0.0891170972     0.2590904456
C       0.0036227089     -0.0023949316     -0.5848910635
H       1.2743716568     -0.8207417510     0.8633722229
H       1.3354323582     0.9449495213     0.9324058561
H       2.1656541605     0.0063594060     -0.3539335826
C       -1.2676095263     -0.0887690617     0.2542967453
H       -0.2537087839     -0.8426690723     -1.2341033416
H       0.2435957462     0.8377122339     -1.2409318864
H       -1.3415447640     -0.9381969479     0.9356983399
H       -2.1604050829     0.0038918920     -0.3645734797
H       -1.2667713410     0.8107422800     0.8746147629
11
# Point -2 Energy = 0.012059589999992681
C       1.2673215583     0.0592709117     0.2598408587
C       0.0024235862     -0.0010651191     -0.5861956948
H       1.2841580999     -0.8411844571     0.8776225440
H       1.3262324126     0.9238833401     0.9231587756
H       2.1656525247     0.0032615214     -0.3560230133
C       -1.2673129584     -0.0591236130     0.2566902277
H       -0.1701771190     -0.8599721908     -1.2390696054
H       0.1631904764     0.8577848332     -1.2421586840
H       -1.3287445710     -0.9190881835     0.9262276425
H       -2.1621850668     0.0012988807     -0.3632888255
H       -1.2805590033     0.8349347424     0.8842407934
11
# Point -1 Energy = 0.0030168699999961746
C       1.2672591978     0.0295852700     0.2599738034
C       0.0012144203     -0.0002662928     -0.5869572226
H       1.2944499054     -0.8611179046     0.8911433082
H       1.3162055147     0.9025082603     0.9135831714
H       2.1653057843     0.0011088721     -0.3580670965
C       -1.2672026759     -0.0295496031     0.2584124076
H       -0.0853950431     -0.8703935079     -1.2420405214
H       0.0818271385     0.8698493213     -1.2428208455
H       -1.3166845242     -0.8999478227     0.9155598384
H       -2.1635806985     0.0000319084     -0.3617513287
H       -1.2933990799     0.8581921649     0.8940095047
11
# Point 0 Energy = 0
C       1.2672042126     0.0000000000     0.2594997522
C       0.0000000000     0.0000000000     -0.5872081259
H       1.3052750505     -0.8806643351     0.9038259677
H       1.3052750505     0.8806643351     0.9038259677
H       2.1646165232     0.0000000000     -0.3599948239
C       -1.2672042126     -0.0000000181     0.2594997522
H       0.0000000000     -0.8738729764     -1.2430302913
H       -0.0000000606     0.8738729764     -1.2430302913
H       -1.3052750505     -0.8806643351     0.9038259677
H       -2.1646165232     0.0000006841     -0.3599948239
H       -1.3052750505     0.8806643351     0.9038259677
11
# Point 1 Energy = 0.0030168699999961746
C       1.2672026872     -0.0295495348     0.2584125075
C       -0.0012144215     -0.0002663084     -0.5869572148
H       1.3166843246     -0.8999477827     0.9155599285
H       1.2933991834     0.8581922461     0.8940095370
H       2.1635805183     0.0000309768     -0.3617515242
C       -1.2672592140     0.0295852945     0.2599738951
H       0.0853950464     -0.8703933866     -1.2420406850
H       -0.0818272652     0.8698493819     -1.2428207324
H       -1.2944497056     -0.8611178749     0.8911433784
H       -2.1653056020     0.0011093329     -0.3580672840
H       -1.3162056122     0.9025083212     0.9135832128
11
# Point 2 Energy = 0.01205958000001317
C       1.2673129772     -0.0591234874     0.2566904369
C       -0.0024235911     -0.0010651497     -0.5861956774
H       1.3287441747     -0.9190880932     0.9262278439
H       1.2805592209     0.8349349261     0.8842408485
H       2.1621847104     0.0012976742     -0.3632892296
C       -1.2673215967     0.0592709709     0.2598410351
H       0.1701771321     -0.8599719433     -1.2390699294
H       -0.1631906193     0.8577849541     -1.2421584569
H       -1.2841577028     -0.8411844080     0.8776226655
H       -2.1656521597     0.0032617804     -0.3560233849
H       -1.3262326063     0.9238834420     0.9231588673
11
# Point 3 Energy = 0.02716218999999853
C       1.2676095495     -0.0887688726     0.2542970745
C       -0.0036227200     -0.0023949759     -0.5848910330
H       1.3415441765     -0.9381967972     0.9356986749
H       1.2667716877     0.8107425882     0.8746148309
H       2.1604045565     0.0038903807     -0.3645741107
C       -1.2673628750     0.0891171830     0.2590907007
H       0.2537088118     -0.8426686889     -1.2341038195
H       -0.2435959148     0.8377124146     -1.2409315437
H       -1.2743710677     -0.8207416925     0.8633723777
H       -2.1656536137     0.0063594820     -0.3539341390
H       -1.3354326515     0.9449496446     0.9324060062
11
# Point 4 Energy = 0.048391490000000204
C       1.2681845550     -0.1185268191     0.2511816453
C       -0.0048067188     -0.0042511015     -0.5829846312
H       1.3552015403     -0.9573849782     0.9438261088
H       1.2520915286     0.7854643639     0.8652150691
H       2.1582036411     0.0078926790     -0.3655870594
C       -1.2673735563     0.1191867834     0.2576941304
H       0.3353479483     -0.8185924174     -1.2271117067
H       -0.3225401661     0.8097009713     -1.2389451488
H       -1.2650833936     -0.7996628026     0.8484986741
H       -2.1653005221     0.0102968128     -0.3518921381
H       -1.3439249171     0.9658771744     0.9411500754
11
# Point 5 Energy = 0.07576957999999934
C       1.2691478054     -0.1484308129     0.2472792744
C       -0.0059699594     -0.0066229898     -0.5803893869
H       1.3698625186     -0.9767646915     0.9504435066
H       1.2366165301     0.7589472129     0.8561170743
H       2.1555322920     0.0133773999     -0.3663243799
C       -1.2673647933     0.1495434671     0.2556024255
H       0.4144458070     -0.7879079443     -1.2180421627
H       -0.3995070161     0.7738693065     -1.2359174860
H       -1.2563084932     -0.7778166868     0.8331073488
H       -2.1645773427     0.0149576789     -0.3500148918
H       -1.3518774092     0.9868487260     0.9491836967

    This sampling was finished on:   2020-07-06 18:47:01
=------------------------------------------------------------------------------=
Sampling finished.
=------------------------------------------------------------------------------=