11
# Point -3 Energy = 0.0682193199999972
C       1.2670160143     -0.0481740426     0.2591150427
C       0.0002378166     -0.0000587294     -0.5868849277
H       1.2852166290     -0.7942134007     0.8135205943
H       1.3303362045     0.9706327666     0.9932080701
H       2.1612701029     -0.0519829640     -0.3580628470
C       -1.2655734410     0.0481970158     0.2605090423
H       -0.0187432978     -0.8737913838     -1.2426148034
H       0.0187701519     0.8735615226     -1.2427858071
H       -1.3287063155     -0.9680362313     0.9926140851
H       -2.1665095684     0.0523744906     -0.3607489655
H       -1.2833143572     0.7914916223     0.8131755350
11
# Point -2 Energy = 0.02917549000000008
C       1.2672773342     -0.0321277523     0.2591762304
C       0.0001578572     -0.0000262914     -0.5870644761
H       1.2915257845     -0.8229274069     0.8437905235
H       1.3216461393     0.9405597001     0.9635512394
H       2.1625440502     -0.0347111087     -0.3588344388
C       -1.2663223465     0.0321376261     0.2601008894
H       -0.0124979756     -0.8738363468     -1.2428453212
H       0.0125186491     0.8737347463     -1.2429218748
H       -1.3205239943     -0.9388103940     0.9631866898
H       -2.1660429796     0.0348852691     -0.3606319115
H       -1.2902825791     0.8211226246     0.8435374688
11
# Point -1 Energy = 0.0071281899999888765
C       1.2673408287     -0.0160679527     0.2593039910
C       0.0000787234     -0.0000067423     -0.5871722169
H       1.2982122255     -0.8517444979     0.8738923882
H       1.3132906792     0.9105693785     0.9337579931
H       2.1636602089     -0.0173810570     -0.3594791023
C       -1.2668653518     0.0160701189     0.2597649169
H       -0.0062497179     -0.8738636049     -1.2429837982
H       0.0062608596     0.8738385620     -1.2430034032
H       -1.3127128691     -0.9096863317     0.9335906337
H       -2.1654114584     0.0174248570     -0.3603798579
H       -1.2976041888     0.8508479362     0.8737534745
11
# Point 0 Energy = 0
C       1.2672042126     0.0000000000     0.2594997522
C       0.0000000000     0.0000000000     -0.5872081259
H       1.3052750505     -0.8806643351     0.9038259677
H       1.3052750505     0.8806643351     0.9038259677
H       2.1646165232     0.0000000000     -0.3599948239
C       -1.2672042126     -0.0000000181     0.2594997522
H       0.0000000000     -0.8738729764     -1.2430302913
H       -0.0000000606     0.8738729764     -1.2430302913
H       -1.3052750505     -0.8806643351     0.9038259677
H       -2.1646165232     0.0000006841     -0.3599948239
H       -1.3052750505     0.8806643351     0.9038259677
11
# Point 1 Energy = 0.007128199999996809
C       1.2668653765     0.0160707364     0.2597649293
C       -0.0000787276     -0.0000060366     -0.5871721948
H       1.3127129245     -0.9096865744     0.9335910668
H       1.2976041524     0.8508473653     0.8737527990
H       2.1654111141     0.0174247178     -0.3603795837
C       -1.2673408623     -0.0160673722     0.2593039987
H       0.0062497259     -0.8738643999     -1.2429848196
H       -0.0062609747     0.8738379929     -1.2430025047
H       -1.2982122814     -0.8517447309     0.8738928328
H       -2.1636598715     -0.0173798282     -0.3594788353
H       -1.3132906366     0.9105687957     0.9337573304
11
# Point 2 Energy = 0.029175580000000423
C       1.2663223871     0.0321388439     0.2601009191
C       -0.0001578739     -0.0000248801     -0.5870644319
H       1.3205241046     -0.9388108890     0.9631875449
H       1.2902825127     0.8211214951     0.8435361048
H       2.1660422842     0.0348856747     -0.3606313558
C       -1.2672774100     -0.0321265742     0.2591762410
H       0.0124980078     -0.8738379371     -1.2428473636
H       -0.0125187460     0.8737336080     -1.2429200781
H       -1.2915258967     -0.8229278629     0.8437914241
H       -2.1625433823     -0.0347093357     -0.3588339122
H       -1.3216460481     0.9405585232     0.9635499265
11
# Point 3 Energy = 0.06821960999999988
C       1.2655734887     0.0481988345     0.2605090940
C       -0.0002378541     -0.0000566132     -0.5868848613
H       1.3287064800     -0.9680369877     0.9926153513
H       1.2833142676     0.7914899470     0.8131734690
H       2.1665085147     0.0523754405     -0.3607481211
C       -1.2670161412     -0.0481722677     0.2591150517
H       0.0187433703     -0.8737937698     -1.2426178660
H       -0.0187702185     0.8735598147     -1.2427831124
H       -1.2852167978     -0.7942140693     0.8135219627
H       -2.1612691111     -0.0519806476     -0.3580620679
H       -1.3303360592     0.9706309847     0.9932061190

    This sampling was finished on:   2020-07-02 18:36:53
=------------------------------------------------------------------------------=
Sampling finished.
=------------------------------------------------------------------------------=