11
# Point -5 Energy = 0.055359290000012606
C       1.2910402893     0.1602999930     0.2115016985
C       0.0174334710     -0.0030535483     -0.5838986179
H       1.0330028966     -0.8125966758     0.6474511070
H       1.4323256396     0.8069150350     1.0755540140
H       2.2310154138     -0.0351127679     -0.3021579347
C       -1.2290820840     -0.1337144838     0.3068976747
H       0.3104976904     -0.8314557935     -1.2332211139
H       -0.4094194068     0.7645900787     -1.2337268152
H       -1.5437761030     -0.8314610191     1.0784904801
H       -2.0521797555     0.0621574994     -0.3836157969
H       -1.0808581118     0.8534323485     0.7577703234
11
# Point -4 Energy = 0.034775639999992336
C       1.2884277734     0.1248441566     0.2210523808
C       0.0141218872     -0.0017312066     -0.5850332184
H       1.0894889992     -0.8386137074     0.7038917240
H       1.4146325275     0.8289524548     1.0423100764
H       2.2232909724     -0.0283978640     -0.3163861908
C       -1.2370436110     -0.1079639793     0.2977618203
H       0.2491714010     -0.8464031860     -1.2369823021
H       -0.3308174871     0.8044276518     -1.2368625704
H       -1.4989282650     -0.8475878217     1.0512831776
H       -2.0778106514     0.0440726035     -0.3819081651
H       -1.1345336068     0.8684015641     0.7819182866
11
# Point -3 Energy = 0.019270739999996067
C       1.2844857077     0.0912532970     0.2306711902
C       0.0106983819     -0.0008912226     -0.5859506927
H       1.1451930284     -0.8580230851     0.7581499582
H       1.3929866873     0.8475185432     1.0078153694
H       2.2121983042     -0.0215089225     -0.3293589003
C       -1.2449928058     -0.0818658858     0.2883269478
H       0.1873337819     -0.8582942201     -1.2397218178
H       -0.2499281671     0.8350292397     -1.2394547412
H       -1.4527687400     -0.8610832011     1.0199391502
H       -2.1017594249     0.0297284959     -0.3785648389
H       -1.1834468142     0.8781376274     0.8091933940
11
# Point -2 Energy = 0.008488619999994285
C       1.2795008574     0.0594041422     0.2402856127
C       0.0071863438     -0.0003730637     -0.5866355459
H       1.1998223722     -0.8711597919     0.8097296386
H       1.3674929683     0.8623725571     0.9728598727
H       2.1984154318     -0.0145924057     -0.3409437353
C       -1.2527485662     -0.0552774090     0.2787511099
H       0.1251086659     -0.8669113761     -1.2415877137
H       -0.1674490353     0.8566794480     -1.2414028427
H       -1.4051105411     -0.8714304853     0.9847782486
H       -2.1241910280     0.0180816170     -0.3737403260
H       -1.2280275294     0.8832074335     0.8389506999
11
# Point -1 Energy = 0.002117139999995743
C       1.2736853443     0.0290677104     0.2498905548
C       0.0036101872     -0.0000901356     -0.5870622208
H       1.2532168261     -0.8785255691     0.8583511815
H       1.3382413373     0.8734373808     0.9380348280
H       2.1824404835     -0.0075175625     -0.3511420746
C       -1.2601883571     -0.0280448163     0.2691252608
H       0.0626187385     -0.8721270251     -1.2426736389
H       -0.0839646876     0.8695857337     -1.2426163662
H       -1.3559293307     -0.8781251904     0.9460158231
H       -2.1451578995     0.0083685652     -0.3675326964
H       -1.2685727027     0.8839715750     0.8706543676
11
# Point 0 Energy = 0
C       1.2672042126     0.0000000000     0.2594997522
C       0.0000000000     0.0000000000     -0.5872081259
H       1.3052750505     -0.8806643351     0.9038259677
H       1.3052750505     0.8806643351     0.9038259677
H       2.1646165232     0.0000000000     -0.3599948239
C       -1.2672042126     -0.0000000181     0.2594997522
H       0.0000000000     -0.8738729764     -1.2430302913
H       -0.0000000606     0.8738729764     -1.2430302913
H       -1.3052750505     -0.8806643351     0.9038259677
H       -2.1646165232     0.0000006841     -0.3599948239
H       -1.3052750505     0.8806643351     0.9038259677
11
# Point 1 Energy = 0.00211712999998781
C       1.2601884233     -0.0280448795     0.2691252013
C       -0.0036101824     -0.0000902237     -0.5870622211
H       1.3559295315     -0.8781252129     0.9460158065
H       1.2685723563     0.8839714256     0.8706544408
H       2.1451580115     0.0083683394     -0.3675326970
C       -1.2736853887     0.0290676270     0.2498905108
H       -0.0626187459     -0.8721272108     -1.2426735299
H       0.0839645664     0.8695855472     -1.2426164797
H       -1.2532170131     -0.8785255833     0.8583512051
H       -2.1824405947     -0.0075164549     -0.3511420854
H       -1.3382410248     0.8734372918     0.9380348675
11
# Point 2 Energy = 0.00848860000000684
C       1.2527487201     -0.0552775700     0.2787509725
C       -0.0071863243     -0.0003732435     -0.5866355493
H       1.4051109562     -0.8714305413     0.9847781741
H       1.2280267949     0.8832070692     0.8389508846
H       2.1241912508     0.0180818996     -0.3737403131
C       -1.2795009231     0.0594040095     0.2402855378
H       -0.1251086952     -0.8669117519     -1.2415874924
H       0.1674489142     0.8566790668     -1.2414030788
H       -1.1998227314     -0.8711598147     0.8097297258
H       -2.1984156528     -0.0145908958     -0.3409437643
H       -1.3674923700     0.8623724381     0.9728599220
11
# Point 3 Energy = 0.0192707199999802
C       1.2449930699     -0.0818661609     0.2883267107
C       -0.0106983372     -0.0008915015     -0.5859507051
H       1.4527693830     -0.8610833037     1.0199389754
H       1.1834456420     0.8781369736     0.8091937341
H       2.1017597527     0.0297293547     -0.3785647919
C       -1.2844857694     0.0912531317     0.2306710941
H       -0.1873338477     -0.8582947949     -1.2397214778
H       0.2499280461     0.8350286470     -1.2394551183
H       -1.1451935422     -0.8580231134     0.7581501481
H       -2.2121986346     -0.0215070208     -0.3293589525
H       -1.3929858231     0.8475184542     1.0078154020
11
# Point 4 Energy = 0.03477560999999696
C       1.2370440092     -0.1079643844     0.2977614581
C       -0.0141218051     -0.0017315956     -0.5850332497
H       1.4989291492     -0.8475879858     1.0512828581
H       1.1345319377     0.8684005322     0.7819188318
H       2.0778110708     0.0440741266     -0.3819080532
C       -1.2884278025     0.1248439775     0.2210522691
H       -0.2491715175     -0.8464039732     -1.2369818333
H       0.3308173664     0.8044268216     -1.2368631174
H       -1.0894896455     -0.8386137399     0.7038920536
H       -2.2232914144     -0.0283955724     -0.3163862681
H       -1.4146314089     0.8289524594     1.0423100700
11
# Point 5 Energy = 0.0553592500000093
C       1.2290826418     -0.1337150335     0.3068971575
C       -0.0174333377     -0.0030540613     -0.5838986833
H       1.5437772401     -0.8314612597     1.0784899706
H       1.0808558763     0.8534308290     0.7577711292
H       2.0521802398     0.0621597978     -0.3836155736
C       -1.2910402531     0.1602998242     0.2115015693
H       -0.3104978716     -0.8314568114     -1.2332205029
H       0.4094192879     0.7645889739     -1.2337275733
H       -1.0330036444     -0.8125967093     0.6474516066
H       -2.2310159729     -0.0351100834     -0.3021580328
H       -1.4323242668     0.8069151999     1.0755539517

    This sampling was finished on:   2020-07-06 18:47:01
=------------------------------------------------------------------------------=
Sampling finished.
=------------------------------------------------------------------------------=