11
# Point -3 Energy = 0.08472785000000727
C       1.2787357045     -0.0002053855     0.2102802871
C       0.0000001936     -0.0060545563     -0.6245463517
H       1.3177342473     -0.9419348129     0.9028882161
H       1.3007826150     0.9430931993     0.9216577164
H       2.0182397755     0.0105416120     -0.2937961143
C       -1.2787343836     -0.0002052801     0.2102816712
H       -0.0000000445     -0.8568694888     -1.2501228641
H       -0.0000000365     0.8399343378     -1.2663439088
H       -1.3177324887     -0.9419323349     0.9028881282
H       -2.0182442357     0.0105419630     -0.2937981928
H       -1.3007814076     0.9430914125     0.9216564316
11
# Point -2 Energy = 0.03389673999998877
C       1.2749036172     -0.0002705916     0.2266922567
C       0.0000001295     -0.0041571712     -0.6121165910
H       1.3136465742     -0.9216955351     0.9031361494
H       1.3025213904     0.9223380982     0.9155565606
H       2.0672149118     0.0074848219     -0.3156345667
C       -1.2749027355     -0.0002705165     0.2266931727
H       -0.0000000347     -0.8626895613     -1.2477518958
H       -0.0000000398     0.8511328356     -1.2585859146
H       -1.3136454138     -0.9216938727     0.9031360831
H       -2.0672178873     0.0074852606     -0.3156359534
H       -1.3025205727     0.9223368981     0.9155557179
11
# Point -1 Energy = 0.007712999999995418
C       1.2710597649     -0.0002030981     0.2430988072
C       0.0000000649     -0.0021404160     -0.5996704066
H       1.3094929926     -0.9012717854     0.9034503702
H       1.3040210297     0.9015281753     0.9096102951
H       2.1160093888     0.0039743642     -0.3377002961
C       -1.2710593236     -0.0002030641     0.2430992619
H       -0.0000000199     -0.8683590278     -1.2453873041
H       -0.0000000478     0.8624439817     -1.2508149328
H       -1.3094924184     -0.9012709490     0.9034503333
H       -2.1160108774     0.0039749142     -0.3377009901
H       -1.3040206144     0.9015275710     0.9096098808
11
# Point 0 Energy = 0
C       1.2672042126     0.0000000000     0.2594997522
C       0.0000000000     0.0000000000     -0.5872081259
H       1.3052750505     -0.8806643351     0.9038259677
H       1.3052750505     0.8806643351     0.9038259677
H       2.1646165232     0.0000000000     -0.3599948239
C       -1.2672042126     -0.0000000181     0.2594997522
H       0.0000000000     -0.8738729764     -1.2430302913
H       -0.0000000606     0.8738729764     -1.2430302913
H       -1.3052750505     -0.8806643351     0.9038259677
H       -2.1646165232     0.0000006841     -0.3599948239
H       -1.3052750505     0.8806643351     0.9038259677
11
# Point 1 Energy = 0.006622010000015166
C       1.2633370254     0.0003413619     0.2758948826
C       -0.0000000651     0.0022684111     -0.5747300819
H       1.3009943450     -0.8598741931     0.9042579676
H       1.3062769523     0.8597474865     0.8982106726
H       2.2130293524     -0.0044483553     -0.3825196261
C       -1.2633374672     0.0003412805     0.2758944343
H       0.0000000255     -0.8792261719     -1.2406824034
H       -0.0000000783     0.8854253024     -1.2352309810
H       -1.3009949074     -0.8598750401     0.9042580123
H       -2.2130278624     -0.0044475146     -0.3825189305
H       -1.3062773808     0.8597480988     0.8982110724
11
# Point 2 Energy = 0.024901860000014153
C       1.2594582683     0.0008233823     0.2922839518
C       -0.0000001302     0.0046691668     -0.5622366251
H       1.2966524971     -0.8389026015     0.9047413540
H       1.3070201329     0.8387785201     0.8927715527
H       2.2612406541     -0.0093805518     -0.4052761252
C       -1.2594591522     0.0008232262     0.2922830614
H       0.0000000570     -0.8844130808     -1.2383455371
H       -0.0000001008     0.8971066916     -1.2274156699
H       -1.2966536104     -0.8389043061     0.9047414510
H       -2.2612376729     -0.0093795326     -0.4052747320
H       -1.3070210035     0.8387797520     0.8927723374
11
# Point 3 Energy = 0.05325181000000612
C       1.2555680061     0.0014481687     0.3086666569
C       -0.0000001951     0.0072065951     -0.5497281402
H       1.2922511262     -0.8177510339     0.9052710875
H       1.3074978037     0.8177582867     0.8875157973
H       2.3092429825     -0.0148061036     -0.4282656659
C       -1.2555693318     0.0014479265     0.3086653306
H       0.0000000948     -0.8894279086     -1.2360219453
H       -0.0000001284     0.9089230811     -1.2195827253
H       -1.2922527790     -0.8177536069     0.9052712445
H       -2.3092385095     -0.0148048845     -0.4282635729
H       -1.3074991302     0.8177601452     0.8875169516

    This sampling was finished on:   2020-07-06 18:47:01
=------------------------------------------------------------------------------=
Sampling finished.
=------------------------------------------------------------------------------=