11
# Point -5 Energy = 0.07946371999997837
C       1.2613635711     -0.0583307803     0.1988297341
C       0.0000000979     0.0570564432     -0.6040809113
H       1.5163734488     -0.9350755237     0.7887035892
H       0.8446778943     0.6975642888     0.8756226561
H       2.1517724305     0.4518860474     -0.1680014754
C       -1.2613635499     -0.0583310026     0.1988294787
H       0.0000011228     -0.9923241643     -0.9093574686
H       -0.0000011606     0.6231782965     -1.5358260418
H       -1.5163733350     -0.9350758058     0.7887032520
H       -2.1517715738     0.4518882163     -0.1680004920
H       -0.8446790067     0.6975646503     0.8756226979
11
# Point -4 Energy = 0.04980012000001466
C       1.2649486447     -0.0516574347     0.2162055620
C       0.0000000942     0.0445071848     -0.5926953215
H       1.4837295097     -0.9326098659     0.8160548155
H       0.9483153676     0.7506975522     0.8921074273
H       2.1718455605     0.3550530015     -0.2311426726
C       -1.2649485682     -0.0516576299     0.2162054043
H       0.0000009111     -0.9771636887     -0.9805802268
H       -0.0000009711     0.6896888909     -1.4721300144
H       -1.4837293843     -0.9326100743     0.8160546252
H       -2.1718449650     0.3550549335     -0.2311419875
H       -0.9483162599     0.7506977966     0.8921074074
11
# Point -3 Energy = 0.027381970000007527
C       1.2671129874     -0.0419589071     0.2309940574
C       0.0000000818     0.0330241669     -0.5858037417
H       1.4452626987     -0.9257284016     0.8417937260
H       1.0469821013     0.7954887494     0.9010088343
H       2.1812960257     0.2597900064     -0.2803711644
C       -1.2671128873     -0.0419590586     0.2309939750
H       0.0000006848     -0.9562759142     -1.0499417247
H       -0.0000007652     0.7480680062     -1.4100606385
H       -1.4452625796     -0.9257285389     0.8417936406
H       -2.1812956378     0.2597916519     -0.2803707266
H       -1.0469827704     0.7954889055     0.9010087815
11
# Point -2 Energy = 0.011889300000007097
C       1.2681058836     -0.0297911722     0.2430783665
C       0.0000000613     0.0221078560     -0.5829428074
H       1.4021292701     -0.9146127481     0.8652464642
H       1.1397312448     0.8317781881     0.9046965705
H       2.1821668944     0.1681801282     -0.3171527264
C       -1.2681057907     -0.0297912751     0.2430783343
H       0.0000004535     -0.9312461987     -1.1169160420
H       -0.0000005432     0.7980289759     -1.3508336133
H       -1.4021291759     -0.9146128248     0.8652464419
H       -2.1821666696     0.1681814617     -0.3171524819
H       -1.1397316889     0.8317782749     0.9046965123
11
# Point -1 Energy = 0.0029095999999952937
C       1.2681020030     -0.0156609816     0.2525285926
C       0.0000000337     0.0112536626     -0.5835802748
H       1.3552373922     -0.8995031654     0.8860106116
H       1.2259687449     0.8599498630     0.9051213786
H       2.1761610664     0.0813903303     -0.3431646829
C       -1.2681019447     -0.0156610385     0.2525285868
H       0.0000002239     -0.9034181709     -1.1812921316
H       -0.0000003073     0.8398121243     -1.2950744343
H       -1.3552373387     -0.8995031960     0.8860106157
H       -2.1761609688     0.0813913406     -0.3431645821
H       -1.2259689651     0.8599498976     0.9051213395
11
# Point 0 Energy = 0
C       1.2672042126     0.0000000000     0.2594997522
C       0.0000000000     0.0000000000     -0.5872081259
H       1.3052750505     -0.8806643351     0.9038259677
H       1.3052750505     0.8806643351     0.9038259677
H       2.1646165232     0.0000000000     -0.3599948239
C       -1.2672042126     -0.0000000181     0.2594997522
H       0.0000000000     -0.8738729764     -1.2430302913
H       -0.0000000606     0.8738729764     -1.2430302913
H       -1.3052750505     -0.8806643351     0.9038259677
H       -2.1646165232     0.0000006841     -0.3599948239
H       -1.3052750505     0.8806643351     0.9038259677
11
# Point 1 Energy = 0.0027720599999980777
C       1.2654519386     0.0168422434     0.2641793165
C       -0.0000000389     -0.0120713683     -0.5933749273
H       1.2527353519     -0.8583592138     0.9185065842
H       1.3773375680     0.8947231926     0.9019977682
H       2.1485500027     -0.0758261666     -0.3690303488
C       -1.2654520171     0.0168422547     0.2641793052
H       -0.0000002158     -0.8434333388     -1.3022237384
H       0.0000001943     0.9007448922     -1.1946629061
H       -1.2527354150     -0.8583591980     0.9185065554
H       -2.1485500749     -0.0758258080     -0.3690304127
H       -1.3773373544     0.8947231766     0.9019978228
11
# Point 2 Energy = 0.010795290000004343
C       1.2628384924     0.0345812776     0.2667541269
C       -0.0000000821     -0.0253265121     -0.6016838651
H       1.1979972200     -0.8328636482     0.9298743209
H       1.4418630501     0.9029494228     0.9005719882
H       2.1287255481     -0.1460804130     -0.3714361420
C       -1.2628386667     0.0345813076     0.2667540909
H       -0.0000004227     -0.8127427660     -1.3589669590
H       0.0000004548     0.9208965950     -1.1498326559
H       -1.1979973534     -0.8328636299     0.9298742435
H       -2.1287256696     -0.1460803769     -0.3714362377
H       -1.4418626315     0.9029494090     0.9005721082
11
# Point 3 Energy = 0.02377001000000689
C       1.2593040118     0.0529821699     0.2674156281
C       -0.0000001291     -0.0400661059     -0.6117931946
H       1.1413522359     -0.8044955648     0.9377324657
H       1.4985319014     0.9061419380     0.9003144263
H       2.1057067953     -0.2107702685     -0.3681979536
C       -1.2593042970     0.0529822075     0.2674155570
H       -0.0000006207     -0.7823626968     -1.4132733862
H       0.0000007189     0.9347131489     -1.1084174136
H       -1.1413524447     -0.8044955555     0.9377323242
H       -2.1057069442     -0.2107705502     -0.3681980531
H       -1.4985312881     0.9061419434     0.9003146186
11
# Point 4 Energy = 0.041513940000001526
C       1.2547308321     0.0718648076     0.2663682892
C       -0.0000001795     -0.0565324131     -0.6234087215
H       1.0830000225     -0.7736105016     0.9418674461
H       1.5470161844     0.9050700228     0.9018579688
H       2.0798906484     -0.2699218099     -0.3601639541
C       -1.2547312412     0.0718648417     0.2663681760
H       -0.0000008110     -0.7528086546     -1.4651015478
H       0.0000009849     0.9425372255     -1.0703040697
H       -1.0830003108     -0.7736105108     0.9418672284
H       -2.0798908026     -0.2699224033     -0.3601640329
H       -1.5470153877     0.9050700618     0.9018582364
11
# Point 5 Energy = 0.06387588000001188
C       1.2489410144     0.0911066448     0.2638411568
C       -0.0000002329     -0.0748927811     -0.6362711701
H       1.0230700923     -0.7406160664     0.9420404870
H       1.5869751858     0.9004453760     0.9057529986
H       2.0515327756     -0.3235155079     -0.3480953229
C       -1.2489415586     0.0911066645     0.2638409977
H       -0.0000009956     -0.7246317503     -1.5143141012
H       0.0000012513     0.9446851334     -1.0354481921
H       -1.0230704632     -0.7406161017     0.9420401842
H       -2.0515329118     -0.3235164055     -0.3480953600
H       -1.5869742179     0.9004454604     0.9057533410

    This sampling was finished on:   2020-07-06 18:47:01
=------------------------------------------------------------------------------=
Sampling finished.
=------------------------------------------------------------------------------=