11
# Point -3 Energy = 0.06923298999998906
C       1.2275757609     0.0032111080     0.2979398870
C       -0.0118013317     0.0007054306     -0.5874540047
H       1.2550263136     -0.8032192427     0.8960927603
H       1.2684407164     0.8317269000     0.8756494821
H       2.2968484987     -0.0158992723     -0.4213110195
C       -1.3056080588     -0.0013099655     0.2197133766
H       0.0018892899     -0.8733583420     -1.2428551492
H       -0.0019735709     0.8743734756     -1.2434982629
H       -1.3550395857     -0.9563312567     0.9097734291
H       -2.0335279683     0.0109524254     -0.2959082335
H       -1.3418301248     0.9291494057     0.9329027536
11
# Point -2 Energy = 0.029432259999992993
C       1.2409151497     0.0019135392     0.2852827806
C       -0.0078692343     0.0003117503     -0.5873174714
H       1.2718078447     -0.8292378919     0.8988834386
H       1.2807684261     0.8480797096     0.8849378353
H       2.2526539599     -0.0100337340     -0.4011777785
C       -1.2929488946     -0.0010715388     0.2331180734
H       0.0012535413     -0.8736436388     -1.2429505226
H       -0.0013082788     0.8740959822     -1.2432402092
H       -1.3385278695     -0.9312968932     0.9079701336
H       -2.0770871989     0.0078317937     -0.3175800741
H       -1.3296575061     0.9130515876     0.9231188132
11
# Point -1 Energy = 0.007165520000029346
C       1.2541259123     0.0008458856     0.2724680377
C       -0.0039351222     0.0000765848     -0.5872355316
H       1.2885616635     -0.8550516041     0.9014578388
H       1.2930427975     0.8643944600     0.8943312512
H       2.2085744607     -0.0047371280     -0.3807395070
C       -1.2801464387     -0.0006379607     0.2463815951
H       0.0006249769     -0.8738151107     -1.2430089898
H       -0.0006519431     0.8739291930     -1.2430841954
H       -1.3219350303     -0.9060764003     0.9059910723
H       -2.1207851300     0.0041852414     -0.3389418936
H       -1.3174762073     0.8968875050     0.9134253411
11
# Point 0 Energy = 0
C       1.2672042126     0.0000000000     0.2594997522
C       0.0000000000     0.0000000000     -0.5872081259
H       1.3052750505     -0.8806643351     0.9038259677
H       1.3052750505     0.8806643351     0.9038259677
H       2.1646165232     0.0000000000     -0.3599948239
C       -1.2672042126     -0.0000000181     0.2594997522
H       0.0000000000     -0.8738729764     -1.2430302913
H       -0.0000000606     0.8738729764     -1.2430302913
H       -1.3052750505     -0.8806643351     0.9038259677
H       -2.1646165232     0.0000006841     -0.3599948239
H       -1.3052750505     0.8806643351     0.9038259677
11
# Point 1 Energy = 0.007165470000003893
C       1.2801463330     -0.0006326710     0.2463820169
C       0.0039351224     0.0000820162     -0.5872352354
H       1.3219348322     -0.9060805890     0.9059978906
H       1.3174763528     0.8968823155     0.9134183041
H       2.1207863145     0.0041880285     -0.3389424232
C       -1.2541258302     0.0008511938     0.2724684186
H       -0.0006250245     -0.8738173107     -1.2430143417
H       0.0006518775     0.8739272877     -1.2430785210
H       -1.2885615222     -0.8550557011     0.9014646638
H       -2.2085756427     -0.0047331203     -0.3807400843
H       -1.2930428733     0.8643892164     0.8943243304
11
# Point 2 Energy = 0.02943182999997873
C       1.2929486607     -0.0010610347     0.2331189572
C       0.0078692350     0.0003226123     -0.5873168803
H       1.3385274110     -0.9313053642     0.9079837649
H       1.3296578611     0.9130412609     0.9231046252
H       2.0770895662     0.0078382064     -0.3175810882
C       -1.2409150101     0.0019242256     0.2852835011
H       -0.0012537315     -0.8736480398     -1.2429612266
H       0.0013083796     0.8740921729     -1.2432288601
H       -1.2718076129     -0.8292459960     0.8988970968
H       -2.2526563173     -0.0100265439     -0.4011789835
H       -1.2807685024     0.8480691665     0.8849241123
11
# Point 3 Energy = 0.06923146999999119
C       1.3056076756     -0.0012943066     0.2197147621
C       0.0118013334     0.0007217214     -0.5874531215
H       1.3550387988     -0.9563441049     0.9097938692
H       1.3418307476     0.9291339922     0.9328813030
H       2.0335315127     0.0109626246     -0.2959096899
C       -1.2275755895     0.0032272212     0.2979409055
H       -0.0018897179     -0.8733649457     -1.2428712055
H       0.0019739486     0.8743677648     -1.2434812385
H       -1.2550260365     -0.8032312664     0.8961132617
H       -2.2968520210     -0.0158890343     -0.4213129047
H       -1.2684407125     0.8317109999     0.8756290775

    This sampling was finished on:   2020-07-06 18:47:01
=------------------------------------------------------------------------------=
Sampling finished.
=------------------------------------------------------------------------------=