11
# Point -5 Energy = 0.05888709999999264
C       1.3556331840     -0.0716573777     0.1046709758
C       0.0672714446     0.0169978069     -0.5934759659
H       1.2676832551     -0.9860164217     0.6951648627
H       1.0513638886     0.7066666462     0.8116567547
H       2.3972200640     0.0948341092     -0.1574737170
C       -1.1497662936     0.0945083357     0.4112051031
H       -0.3019630761     -0.8158790941     -1.1965833163
H       -0.0451288266     0.9086945737     -1.2147647880
H       -1.2578561609     -0.7513433068     1.0929173310
H       -1.7657482999     -0.1762379761     -0.4514595367
H       -1.6187092399     0.9794333707     0.8391873156
11
# Point -4 Energy = 0.03654179000000113
C       1.3407486911     -0.0581379873     0.1359925298
C       0.0543984828     0.0110560237     -0.5911068438
H       1.2828817813     -0.9676048989     0.7376011785
H       1.0984378052     0.7409043930     0.8429636376
H       2.3636218810     0.0859283125     -0.2044068826
C       -1.1752778246     0.0722415326     0.3812372333
H       -0.2418989605     -0.8365342957     -1.2136460358
H       -0.0376340281     0.8966449558     -1.2243674495
H       -1.2748115230     -0.7790208274     1.0575392961
H       -1.8595418765     -0.1394776223     -0.4447907830
H       -1.5509244893     0.9740010800     0.8640291385
11
# Point -3 Energy = 0.020051340000009077
C       1.3243021116     -0.0443053552     0.1671474378
C       0.0411202418     0.0062656534     -0.5893638116
H       1.2938282326     -0.9475593745     0.7799737238
H       1.1471418443     0.7764625016     0.8676764283
H       2.3234786087     0.0715018641     -0.2484080889
C       -1.1998576179     0.0520024338     0.3509346716
H       -0.1815612469     -0.8528207396     -1.2266550514
H       -0.0291108474     0.8868456251     -1.2323282207
H       -1.2876440710     -0.8057789468     1.0206381481
H       -1.9463153266     -0.1021342764     -0.4319096684
H       -1.4853819898     0.9595212804     0.8833394502
11
# Point -2 Energy = 0.008772229999991055
C       1.3064856162     -0.0300839113     0.1981018101
C       0.0275588919     0.0027928536     -0.5881571401
H       1.3010054570     -0.9262516789     0.8219181032
H       1.1977281189     0.8122653248     0.8859984177
H       2.2769250663     0.0520207223     -0.2892517199
C       -1.2233990003     0.0334300939     0.3205091585
H       -0.1210916187     -0.8645115303     -1.2358011488
H       -0.0198223772     0.8796789289     -1.2382206287
H       -1.2968185665     -0.8316133644     0.9826017131
H       -2.0259787878     -0.0657687580     -0.4131574626
H       -1.4225928603     0.9380419854     0.8965039163
11
# Point -1 Energy = 0.0021835599999917576
C       1.2874263439     -0.0153620727     0.2288739254
C       0.0138211636     0.0006985999     -0.5874443930
H       1.3047536281     -0.9039094597     0.8632379416
H       1.2503828642     0.8473250370     0.8980354750
H       2.2239876885     0.0280064569     -0.3265865867
C       -1.2458562942     0.0161877960     0.2900304237
H       -0.0605562655     -0.8715334297     -1.2412302491
H       -0.0100332450     0.8753288213     -1.2418216888
H       -1.3026421132     -0.8565661339     0.9436298285
H       -2.0986792141     -0.0314595756     -0.3890161110
H       -1.3626046168     0.9112846266     0.9033364535
11
# Point 0 Energy = 0
C       1.2672042126     0.0000000000     0.2594997522
C       0.0000000000     0.0000000000     -0.5872081259
H       1.3052750505     -0.8806643351     0.9038259677
H       1.3052750505     0.8806643351     0.9038259677
H       2.1646165232     0.0000000000     -0.3599948239
C       -1.2672042126     -0.0000000181     0.2594997522
H       0.0000000000     -0.8738729764     -1.2430302913
H       -0.0000000606     0.8738729764     -1.2430302913
H       -1.3052750505     -0.8806643351     0.9038259677
H       -2.1646165232     0.0000006841     -0.3599948239
H       -1.3052750505     0.8806643351     0.9038259677
11
# Point 1 Energy = 0.0021835599999917576
C       1.2458561296     0.0161877370     0.2900304239
C       -0.0138211625     0.0006985379     -0.5874443267
H       1.3026422104     -0.8565661237     0.9436299235
H       1.3626046066     0.9112846331     0.9033363524
H       2.0986789499     -0.0314601262     -0.3890162223
C       -1.2874261873     -0.0153621842     0.2288739116
H       0.0605562814     -0.8715334726     -1.2412302531
H       0.0100331206     0.8753288203     -1.2418215292
H       -1.3047537372     -0.9039094830     0.8632380197
H       -2.2239874373     0.0280073174     -0.3265867096
H       -1.2503828348     0.8473250099     0.8980354289
11
# Point 2 Energy = 0.008772239999984777
C       1.2233986613     0.0334299791     0.3205091717
C       -0.0275588874     0.0027927344     -0.5881570084
H       1.2968187409     -0.8316133082     0.9826019183
H       1.4225928648     0.9380420210     0.8965036527
H       2.0259782433     -0.0657692240     -0.4131576653
C       -1.3064853088     -0.0300841282     0.1981017672
H       0.1210916825     -0.8645116079     -1.2358011532
H       0.0198222428     0.8796789321     -1.2382203090
H       -1.3010056790     -0.9262517564     0.8219182411
H       -2.2769245753     0.0520217934     -0.2892519695
H       -1.1977280458     0.8122652308     0.8859983732
11
# Point 3 Energy = 0.020051379999998176
C       1.1998570928     0.0520022904     0.3509347094
C       -0.0411202313     0.0062654863     -0.5893636166
H       1.2876442938     -0.8057788069     1.0206384766
H       1.4853820398     0.9595213499     0.8833389585
H       1.9463144814     -0.1021347081     -0.4319099334
C       -1.3243016568     -0.0443056857     0.1671473490
H       0.1815613908     -0.8528208359     -1.2266550482
H       0.0291106950     0.8868456421     -1.2323277412
H       -1.2938285617     -0.9475595339     0.7799739023
H       -2.3234778886     0.0715031681     -0.2484084621
H       -1.1471417159     0.7764622998     0.8676764247
11
# Point 4 Energy = 0.03654187000000775
C       1.1752771005     0.0722413948     0.3812373044
C       -0.0543984627     0.0110558217     -0.5911065891
H       1.2748117551     -0.7790205648     1.0575397567
H       1.5509246184     0.9740011625     0.8640283539
H       1.8595407058     -0.1394780645     -0.4447910725
C       -1.3407480892     -0.0581384357     0.1359923771
H       0.2418992167     -0.8365343883     -1.2136460127
H       0.0376338481     0.8966449990     -1.2243668131
H       -1.2828822003     -0.9676051629     0.7376013794
H       -2.3636209423     0.0859298573     -0.2044073697
H       -1.0984376107     0.7409040469     0.8429637046
11
# Point 5 Energy = 0.05888726000000588
C       1.1497653580     0.0945082442     0.4112052105
C       -0.0672714104     0.0169975848     -0.5934756579
H       1.2578563521     -0.7513428834     1.0929179252
H       1.6187094738     0.9794334119     0.8391861855
H       1.7657467784     -0.1762384570     -0.4514598077
C       -1.3556324309     -0.0716579435     0.1046707413
H       0.3019634743     -0.8158791582     -1.1965832553
H       0.0451286074     0.9086946546     -1.2147640044
H       -1.2676837330     -0.9860168041     0.6951650723
H       -2.3972189160     0.0948358867     -0.1574743011
H       -1.0513636144     0.7066661300     0.8116569106

    This sampling was finished on:   2020-07-06 18:47:01
=------------------------------------------------------------------------------=
Sampling finished.
=------------------------------------------------------------------------------=