11
# Point -6 Energy = 0.07590344999999843
C       1.2331003044     0.1430114460     0.2634395396
C       -0.0000000642     0.2609794339     -0.6174128250
H       0.9610465556     -0.8575178193     0.6180566404
H       1.4988519299     0.7506839393     1.1245035300
H       2.1135598439     -0.0556053516     -0.3499755376
C       -1.2331006817     0.1430115606     0.2634390647
H       -0.0000002073     -0.8340638361     -0.7082771919
H       0.0000003289     0.6119408234     -1.6453126472
H       -0.9610463169     -0.8575177683     0.6180557376
H       -2.1135606384     -0.0556045283     -0.3499756066
H       -1.4988511148     0.7506827664     1.1245043150
11
# Point -5 Energy = 0.049891150000007656
C       1.2440520381     0.1198918881     0.2630333671
C       -0.0000000519     0.2205920748     -0.6056475754
H       1.0263666281     -0.8734195231     0.6696376024
H       1.4854687348     0.7825012107     1.0911598408
H       2.1276740041     -0.0471495840     -0.3549817979
C       -1.2440523484     0.1198919692     0.2630329609
H       -0.0000001486     -0.8601827768     -0.7980704200
H       0.0000002684     0.6759434372     -1.5929344965
H       -1.0263664332     -0.8734195331     0.6696368595
H       -2.1276746780     -0.0471487533     -0.3549818568
H       -1.4854680740     0.7825002563     1.0911605349
11
# Point -4 Energy = 0.030344820000010486
C       1.2522677827     0.0961910345     0.2626059020
C       -0.0000000403     0.1781931163     -0.5973786571
H       1.0880965689     -0.8843266780     0.7203955464
H       1.4632543936     0.8110697760     1.0559322015
H       2.1392866480     -0.0396376017     -0.3579416108
C       -1.2522680280     0.0961910863     0.2626055700
H       -0.0000000991     -0.8786639426     -0.8904330350
H       0.0000002040     0.7338783469     -1.5331269855
H       -1.0880964194     -0.8843267272     0.7203949606
H       -2.1392871937     -0.0396367741     -0.3579416592
H       -1.4632538773     0.8110690295     1.0559327860
11
# Point -3 Energy = 0.016360889999987194
C       1.2582873427     0.0721859346     0.2620788494
C       -0.0000000292     0.1346758302     -0.5919358323
H       1.1465682784     -0.8903810824     0.7695037369
H       1.4333037031     0.8355618345     1.0192898244
H       2.1486900856     -0.0318941172     -0.3595152006
C       -1.2582875248     0.0721859618     0.2620785961
H       -0.0000000596     -0.8890025988     -0.9826265175
H       0.0000001374     0.7833820716     -1.4671067868
H       -1.1465681729     -0.8903811491     0.7695033045
H       -2.1486904978     -0.0318933050     -0.3595152378
H       -1.4333033235     0.8355612857     1.0192902826
11
# Point -2 Energy = 0.007064709999994534
C       1.2625874738     0.0480705208     0.2614038450
C       -0.0000000188     0.0904409400     -0.5886975329
H       1.2021445683     -0.8917304043     0.8165399277
H       1.3965822498     0.8555035805     0.9815767087
H       2.1560494379     -0.0230774548     -0.3601992042
C       -1.2625875940     0.0480705283     0.2614036736
H       -0.0000000301     -0.8913537578     -1.0728122725
H       0.0000000702     0.8233806318     -1.3960875675
H       -1.2021445034     -0.8917304678     0.8165396445
H       -2.1560497133     -0.0230766711     -0.3601992294
H       -1.3965820010     0.8555032204     0.9815770260
11
# Point -1 Energy = 0.0017425199999934193
C       1.2654996144     0.0239757677     0.2605507846
C       -0.0000000090     0.0455743325     -0.5872118656
H       1.2550410015     -0.8884753553     0.8613322709
H       1.3537730132     0.8706115713     0.9430304175
H       2.1613924470     -0.0125989425     -0.3603057444
C       -1.2654996739     0.0239757601     0.2605506978
H       -0.0000000104     -0.8861459798     -1.1598535401
H       0.0000000039     0.8535457160     -1.3211049582
H       -1.2550409721     -0.8884753960     0.8613321320
H       -2.1613925844     -0.0125982014     -0.3603057570
H       -1.3537728907     0.8706113934     0.9430305815
11
# Point 0 Energy = 0
C       1.2672042126     0.0000000000     0.2594997522
C       0.0000000000     0.0000000000     -0.5872081259
H       1.3052750505     -0.8806643351     0.9038259677
H       1.3052750505     0.8806643351     0.9038259677
H       2.1646165232     0.0000000000     -0.3599948239
C       -1.2672042126     -0.0000000181     0.2594997522
H       0.0000000000     -0.8738729764     -1.2430302913
H       -0.0000000606     0.8738729764     -1.2430302913
H       -1.3052750505     -0.8806643351     0.9038259677
H       -2.1646165232     0.0000006841     -0.3599948239
H       -1.3052750505     0.8806643351     0.9038259677
11
# Point 1 Energy = 0.0017417100000045593
C       1.2677470188     -0.0237823670     0.2582361570
C       0.0000000081     -0.0464838318     -0.5885738961
H       1.3526719226     -0.8682851278     0.9440492155
H       1.2512328486     0.8854403547     0.8640666125
H       2.1654912259     0.0151273967     -0.3593087165
C       -1.2677469602     -0.0237823916     0.2582362457
H       0.0000000017     -0.8549849481     -1.3219361845
H       -0.0000001222     0.8844681118     -1.1625314983
H       -1.3526719448     -0.8682850707     0.9440493485
H       -2.1654910913     0.0151280089     -0.3593087043
H       -1.2512329678     0.8854405309     0.8640664394
11
# Point 2 Energy = 0.007054740000015158
C       1.2670667480     -0.0472872608     0.2567473697
C       0.0000000152     -0.0941006250     -0.5913096946
H       1.3968834309     -0.8512911178     0.9820227452
H       1.1916029276     0.8846464685     0.8238533701
H       2.1636500955     0.0332334830     -0.3582103262
C       -1.2670666317     -0.0472872882     0.2567475489
H       -0.0000000047     -0.8298769980     -1.3962116673
H       -0.0000001803     0.8853741629     -1.0802600448
H       -1.3968834673     -0.8512909889     0.9820230049
H       -2.1636498310     0.0332340084     -0.3582103030
H       -1.1916031628     0.8846468219     0.8238530161
11
# Point 3 Energy = 0.016296840000009638
C       1.2649630564     -0.0703843559     0.2550268180
C       0.0000000210     -0.1429830887     -0.5955697468
H       1.4373088886     -0.8296600925     1.0176927490
H       1.1261356984     0.8778755217     0.7833745168
H       2.1585519058     0.0548935927     -0.3565454628
C       -1.2649628832     -0.0703843828     0.2550270891
H       -0.0000000184     -0.7990642373     -1.4653590803
H       -0.0000002341     0.8765975151     -0.9971235377
H       -1.4373089307     -0.8296598784     1.0176931283
H       -2.1585515185     0.0548940156     -0.3565454306
H       -1.1261360458     0.8778760564     0.7833739759
11
# Point 4 Energy = 0.030087290000011535
C       1.2610777423     -0.0928799795     0.2530781038
C       0.0000000253     -0.1931282669     -0.6016832401
H       1.4730606723     -0.8034467020     1.0509403725
H       1.0543630912     0.8645885282     0.7429375250
H       2.1494317218     0.0808902902     -0.3540012841
C       -1.2610775126     -0.0928800028     0.2530784684
H       -0.0000000386     -0.7634027638     -1.5287792458
H       -0.0000002834     0.8582261071     -0.9144020917
H       -1.4730607107     -0.8034463914     1.0509408641
H       -2.1494312215     0.0808905950     -0.3540012461
H       -1.0543635466     0.8645892518     0.7429367929
11
# Point 5 Energy = 0.04911416999999574
C       1.2549016506     -0.1144702108     0.2509218351
C       0.0000000280     -0.2442250596     -0.6101457030
H       1.5029739936     -0.7729033253     1.0815341525
H       0.9756548826     0.8440810135     0.7030936338
H       2.1352391506     0.1123408888     -0.3500565041
C       -1.2549013647     -0.1144702283     0.2509222943
H       -0.0000000641     -0.7245214581     -1.5857386346
H       -0.0000003283     0.8306489566     -0.8340570469
H       -1.5029740185     -0.7729029087     1.0815347488
H       -2.1352385502     0.1123410599     -0.3500564654
H       -0.9756554401     0.8440819380     0.7030927086
11
# Point 6 Energy = 0.07407355999998799
C       1.2458711161     -0.1346960529     0.2486019095
C       0.0000000287     -0.2954413909     -0.6215054526
H       1.5257892984     -0.7386299435     1.1091053998
H       0.8894472700     0.8154885537     0.6647636288
H       2.1145974285     0.1507561161     -0.3439705460
C       -1.2458707735     -0.1346960635     0.2486024641
H       -0.0000000937     -0.6853469723     -1.6355015942
H       -0.0000003697     0.7949499977     -0.7589488822
H       -1.5257892995     -0.7386294139     1.1091060932
H       -2.1145967443     0.1507561386     -0.3439705140
H       -0.8894479214     0.8154896968     0.6647625124

    This sampling was finished on:   2020-07-06 18:47:01
=------------------------------------------------------------------------------=
Sampling finished.
=------------------------------------------------------------------------------=