11
# Point -4 Energy = 0.05330500999997412
C       1.2797989899     -0.0103958828     0.1939572284
C       0.0000000507     -0.1164118117     -0.6432942881
H       1.3071837440     -0.8094189003     0.9385893381
H       1.2380963559     0.6575183365     1.0653978335
H       2.0253119598     0.4308739732     -0.4585133156
C       -1.2797982181     -0.0103941882     0.1939583701
H       -0.0000010160     -1.1050635182     -1.1086412641
H       0.0000005100     0.6843181483     -1.3858796374
H       -1.3071849663     -0.8094166507     0.9385911675
H       -2.0253146271     0.4308658470     -0.4585150856
H       -1.2380928434     0.6575253129     1.0653946720
11
# Point -3 Energy = 0.029926740000007612
C       1.2766581437     -0.0086773805     0.2118323471
C       0.0000000154     -0.0872549760     -0.6291318724
H       1.3077907805     -0.8297723325     0.9316421129
H       1.2473071240     0.7184602306     1.0327387299
H       2.0770051427     0.3220122968     -0.4435552382
C       -1.2766576915     -0.0086761221     0.2118331167
H       -0.0000007689     -1.0502713321     -1.1453911799
H       0.0000003846     0.7334792797     -1.3497465436
H       -1.3077918260     -0.8297706917     0.9316433768
H       -2.0770065431     0.3220065190     -0.4435559055
H       -1.2473048221     0.7184651748     1.0327360750
11
# Point -2 Energy = 0.0133074099999817
C       1.2735126234     -0.0063318650     0.2286198846
C       0.0000000007     -0.0582118538     -0.6151050514
H       1.3074544954     -0.8483385457     0.9234526642
H       1.2616610535     0.7762458440     0.9948679559
H       2.1167989112     0.2136730273     -0.4218658803
C       -1.2735123898     -0.0063310331     0.2286203479
H       -0.0000005116     -0.9935222449     -1.1799615092
H       0.0000002511     0.7812363349     -1.3140369146
H       -1.3074552811     -0.8483374697     0.9234534507
H       -2.1167994957     0.2136695036     -0.4218659299
H       -1.2616597178     0.7762489684     0.9948660010
11
# Point -1 Energy = 0.0033344099999794707
C       1.2703616031     -0.0034234175     0.2444711535
C       -0.0000000029     -0.0291528359     -0.6011490878
H       1.3065548544     -0.8652602712     0.9141538167
H       1.2810439266     0.8304767988     0.9518842146
H       2.1457786508     0.1061712933     -0.3939063292
C       -1.2703615159     -0.0034230100     0.2444713626
H       -0.0000002533     -0.9347323042     -1.2124905182
H       0.0000001034     0.8279559433     -1.2785207540
H       -1.3065552914     -0.8652597388     0.9141541863
H       -2.1457787846     0.1061699299     -0.3939061722
H       -1.2810433507     0.8304782783     0.9518831465
11
# Point 0 Energy = 0
C       1.2672042126     0.0000000000     0.2594997522
C       0.0000000000     0.0000000000     -0.5872081259
H       1.3052750505     -0.8806643351     0.9038259677
H       1.3052750505     0.8806643351     0.9038259677
H       2.1646165232     0.0000000000     -0.3599948239
C       -1.2672042126     -0.0000000181     0.2594997522
H       0.0000000000     -0.8738729764     -1.2430302913
H       -0.0000000606     0.8738729764     -1.2430302913
H       -1.3052750505     -0.8806643351     0.9038259677
H       -2.1646165232     0.0000006841     -0.3599948239
H       -1.3052750505     0.8806643351     0.9038259677
11
# Point 1 Energy = 0.0033426399999854084
C       1.2640395927     0.0038977130     0.2738063514
C       0.0000000075     0.0293059043     -0.5732212024
H       1.3036878375     -0.8946758025     0.8925120911
H       1.3341271111     0.9262488270     0.8506736058
H       2.1737796464     -0.1042441499     -0.3203617377
C       -1.2640396268     0.0038972676     0.2738061836
H       0.0000002436     -0.8109249757     -1.2715856737
H       -0.0000002406     0.9191662496     -1.2074089903
H       -1.3036873157     -0.8946763263     0.8925117631
H       -2.1737797971     -0.1042415603     -0.3203622242
H       -1.3341275190     0.9262475192     0.8506748522
11
# Point 2 Energy = 0.013412930000015422
C       1.2608668320     0.0082313597     0.2874949451
C       0.0000000187     0.0588262313     -0.5591094376
H       1.3017936536     -0.9074283202     0.8802203024
H       1.3673232008     0.9666013833     0.7923353813
H       2.1736384492     -0.2058964717     -0.2751718727
C       -1.2608668496     0.0082304865     0.2874946485
H       0.0000004732     -0.7458440338     -1.2981296045
H       -0.0000004354     0.9640025874     -1.1714739340
H       -1.3017925308     -0.9074293581     0.8802196859
H       -2.1736390086     -0.2058921533     -0.2751731493
H       -1.3673238637     0.9665989550     0.7923380537
11
# Point 3 Energy = 0.030336120000001188
C       1.2576848948     0.0129664196     0.3006905760
C       0.0000000339     0.0886461459     -0.5447572142
H       1.2995216421     -0.9190727065     0.8669163969
H       1.4045398378     1.0010149084     0.7286157108
H       2.1645197481     -0.3042565254     -0.2245337595
C       -1.2576848458     0.0129651197     0.3006901879
H       0.0000006858     -0.6785227525     -1.3226010940
H       -0.0000006425     1.0085734258     -1.1349752033
H       -1.2995198475     -0.9190742459     0.8669155313
H       -2.1645209489     -0.3042506930     -0.2245361097
H       -1.4045406185     1.0010115699     0.7286199967
11
# Point 4 Energy = 0.054294900000002144
C       1.2544926768     0.0180812291     0.3135670911
C       0.0000000543     0.1189055477     -0.5299789979
H       1.2967043973     -0.9297827094     0.8525096037
H       1.4454338837     1.0286775107     0.6591460724
H       2.1467098515     -0.3986295786     -0.1685005497
C       -1.2544925104     0.0180795040     0.3135666455
H       0.0000008806     -0.6087355901     -1.3448849885
H       -0.0000008588     1.0531384705     -1.0975363240
H       -1.2967018722     -0.9297847334     0.8525085298
H       -2.1467119003     -0.3986224872     -0.1685042434
H       -1.4454346633     1.0286735028     0.6591521799

    This sampling was finished on:   2020-07-02 18:36:53
=------------------------------------------------------------------------------=
Sampling finished.
=------------------------------------------------------------------------------=