11
# Point -4 Energy = 0.05582244000000003
C       1.2876167950     0.0591449547     0.2352962964
C       0.0227665063     0.0058327132     -0.5932241577
H       1.4964348809     -0.7643425132     0.9357772502
H       1.1239279710     0.7932949865     1.0197433579
H       2.1208089837     -0.2335304383     -0.3981228654
C       -1.2443665586     -0.0412682751     0.2720531019
H       0.0321213332     -0.8710273378     -1.2449803319
H       -0.0687846610     0.8736466636     -1.2507000964
H       -1.1079333151     -0.9455844942     0.8514575273
H       -2.1688658015     0.2180995665     -0.2525544683
H       -1.4937261945     0.9057348398     0.7662994050
11
# Point -3 Energy = 0.031047729999983176
C       1.2825021086     0.0421842668     0.2426946520
C       0.0169254729     0.0031598640     -0.5905526548
H       1.4493325098     -0.7986252971     0.9301118401
H       1.1689526780     0.8220097074     0.9929369062
H       2.1363266739     -0.1731566089     -0.3958238831
C       -1.2505654715     -0.0325099653     0.2698331368
H       0.0237753851     -0.8723428971     -1.2441619005
H       -0.0514610768     0.8736956415     -1.2472473113
H       -1.1580389096     -0.9341629379     0.8661318213
H       -2.1714012996     0.1649928093     -0.2853423287
H       -1.4463481313     0.9047560833     0.8024647407
11
# Point -2 Energy = 0.013712800000007519
C       1.2774700293     0.0268798943     0.2491185178
C       0.0112409138     0.0013717721     -0.5886823280
H       1.4017409348     -0.8292670127     0.9227955035
H       1.2138876339     0.8457767169     0.9646674376
H       2.1484212824     -0.1143686386     -0.3885291330
C       -1.2563484611     -0.0226847815     0.2670296465
H       0.0157458242     -0.8732106929     -1.2435427325
H       -0.0342446305     0.8737804688     -1.2448767477
H       -1.2074878935     -0.9194741055     0.8798131242
H       -2.1714528084     0.1108808939     -0.3142567265
H       -1.3989728855     0.9003161512     0.8375084569
11
# Point -1 Energy = 0.003420080000012149
C       1.2723914532     0.0128787919     0.2546926059
C       0.0056121922     0.0003385002     -0.5875747639
H       1.3536968227     -0.8565653029     0.9139910818
H       1.2592712776     0.8652161379     0.9349553935
H       2.1577458384     -0.0567183914     -0.3765086822
C       -1.2618703153     -0.0118442210     0.2635977613
H       0.0078489885     -0.8737093427     -1.2431601333
H       -0.0171033036     0.8738474091     -1.2434886536
H       -1.2565370860     -0.9016288265     0.8924047747
H       -2.1691738283     0.0558662227     -0.3391880833
H       -1.3518821000     0.8923196886     0.8713237181
11
# Point 0 Energy = 0
C       1.2672042126     0.0000000000     0.2594997522
C       0.0000000000     0.0000000000     -0.5872081259
H       1.3052750505     -0.8806643351     0.9038259677
H       1.3052750505     0.8806643351     0.9038259677
H       2.1646165232     0.0000000000     -0.3599948239
C       -1.2672042126     -0.0000000181     0.2594997522
H       0.0000000000     -0.8738729764     -1.2430302913
H       -0.0000000606     0.8738729764     -1.2430302913
H       -1.3052750505     -0.8806643351     0.9038259677
H       -2.1646165232     0.0000006841     -0.3599948239
H       -1.3052750505     0.8806643351     0.9038259677
11
# Point 1 Energy = 0.0034200499999883505
C       1.2618701889     -0.0118447308     0.2635977635
C       -0.0056121978     0.0003385670     -0.5875752338
H       1.2565358940     -0.9016300684     0.8924036375
H       1.3518842768     0.8923208860     0.8713208325
H       2.1691745717     0.0558654418     -0.3391868916
C       -1.2723913605     0.0128781208     0.2546925973
H       -0.0078489703     -0.8737112122     -1.2431578385
H       0.0171031649     0.8738505290     -1.2434848383
H       -1.3536955910     -0.8565667752     0.9139900181
H       -2.1577466470     -0.0567178325     -0.3765076473
H       -1.2592733903     0.8652177405     0.9349526195
11
# Point 2 Energy = 0.013712749999996277
C       1.2563481807     -0.0226857021     0.2670296630
C       -0.0112409337     0.0013718956     -0.5886832669
H       1.2074855715     -0.9194763785     0.8798107795
H       1.3989772836     0.9003181552     0.8375025856
H       2.1714542227     0.1108800587     -0.3142542076
C       -1.2774698781     0.0268784297     0.2491184931
H       -0.0157457470     -0.8732144368     -1.2435381400
H       0.0342444389     0.8737867110     -1.2448691160
H       -1.4017384499     -0.8292702113     0.9227934570
H       -2.1484229649     -0.1143682094     -0.3885272408
H       -1.2138917844     0.8457803539     0.9646620120
11
# Point 3 Energy = 0.031047649999990767
C       1.2505650232     -0.0325111843     0.2698331797
C       -0.0169255065     0.0031600187     -0.5905540607
H       1.1580355520     -0.9341660517     0.8661281972
H       1.4463547746     0.9047585105     0.8024557980
H       2.1714033055     0.1649919734     -0.2853383701
C       -1.2825019264     0.0421818357     0.2426946090
H       -0.0237751912     -0.8723485293     -1.2441550056
H       0.0514607964     0.8737050085     -1.2472358598
H       -1.4493287643     -0.7986305120     0.9301089023
H       -2.1363293189     -0.1731562659     -0.3958213330
H       -1.1689588051     0.8220158625     0.9929289619
11
# Point 4 Energy = 0.05582228999999472
C       1.2443659601     -0.0412696868     0.2720531806
C       -0.0227665292     0.0058328436     -0.5932260268
H       1.1079290761     -0.9455882885     0.8514525411
H       1.4937350921     0.9057373090     0.7662873207
H       2.1688683225     0.2180987990     -0.2525489849
C       -1.2876165887     0.0591413164     0.2352962431
H       -0.0321209251     -0.8710348911     -1.2449711317
H       0.0687842577     0.8736591505     -1.2506848155
H       -1.4964298696     -0.7643501033     0.9357735262
H       -2.1208127650     -0.2335300362     -0.3981198785
H       -1.1239360915     0.7933042535     1.0197330448

    This sampling was finished on:   2020-07-06 18:47:01
=------------------------------------------------------------------------------=
Sampling finished.
=------------------------------------------------------------------------------=