11
# Point -5 Energy = 0.06634130999999854
C       1.1828371946     0.0076796129     0.1866499387
C       0.1331123744     0.0007954161     -0.5867527658
H       1.2082538706     -0.8657571575     0.8368363403
H       1.2415214534     0.9123935166     0.7900835815
H       2.0502741169     -0.0243366118     -0.4732364341
C       -1.3563994017     -0.0071437911     0.3207450050
H       0.3064218055     -0.8713162593     -1.2216871976
H       0.2941953972     0.8739431480     -1.2234803417
H       -1.4026619147     -0.8943292725     0.9601563174
H       -2.2831201687     0.0211138921     -0.2534613259
H       -1.3744347883     0.8469581724     1.0051919011
11
# Point -4 Energy = 0.041252970000002165
C       1.1992570863     0.0061140285     0.2022268389
C       0.1065035741     0.0005100030     -0.5869146383
H       1.2275739719     -0.8688206321     0.8511840917
H       1.2537668100     0.9062424185     0.8138623434
H       2.0727123074     -0.0192342920     -0.4499966022
C       -1.3382362990     -0.0057687777     0.3093468158
H       0.2454164601     -0.8722481433     -1.2293732746
H       0.2356296872     0.8739258815     -1.2305199947
H       -1.3832070441     -0.8917121464     0.9496467225
H       -2.2591753799     0.0171718525     -0.2742863242
H       -1.3602412346     0.8538204735     0.9858690404
11
# Point -3 Energy = 0.02268816000000129
C       1.2159164411     0.0045606385     0.2172871887
C       0.0798861572     0.0002872862     -0.5870417730
H       1.2469464846     -0.8718461729     0.8650407764
H       1.2662778954     0.8999877975     0.8371195352
H       2.0953840398     -0.0142456228     -0.4270614328
C       -1.3202254670     -0.0043654197     0.2975358123
H       0.1842231850     -0.8729638883     -1.2353494524
H       0.1768798253     0.8739060968     -1.2359940853
H       -1.3637328539     -0.8890344271     0.9387746884
H       -2.2353386406     0.0130857281     -0.2953435694
H       -1.3462171275     0.8606286496     0.9660773309
11
# Point -2 Energy = 0.009922210000013365
C       1.2328020584     0.0030221926     0.2318440498
C       0.0532617952     0.0001278117     -0.5871336172
H       1.2663605574     -0.8748306400     0.8784225367
H       1.2790412242     0.8936358010     0.8598615393
H       2.1182703405     -0.0093744321     -0.4044219521
C       -1.3023764162     -0.0029351080     0.2852994214
H       0.1228909221     -0.8734704278     -1.2396170131
H       0.1179937896     0.8738887018     -1.2399033881
H       -1.3442471061     -0.8862987577     0.9275244476
H       -2.2116236813     0.0088592716     -0.3166414788
H       -1.3323735444     0.8673762530     0.9458104734
11
# Point -1 Energy = 0.0024562500000087084
C       1.2499017730     0.0015012115     0.2459105409
C       0.0266323938     0.0000319713     -0.5871893510
H       1.2858064215     -0.8777710044     0.8913455525
H       1.2920442502     0.8871925870     0.8820948430
H       2.1413534216     -0.0046245930     -0.3820693274
C       -1.2846991649     -0.0014793981     0.2726249812
H       0.0614674806     -0.8737725436     -1.2421770401
H       0.0590184330     0.8738770383     -1.2422486140
H       -1.3247581992     -0.8835078183     0.9158801684
H       -2.1880447199     0.0044963009     -0.3381888720
H       -1.3187221503     0.8740569145     0.9250621374
11
# Point 0 Energy = 0
C       1.2672042126     0.0000000000     0.2594997522
C       0.0000000000     0.0000000000     -0.5872081259
H       1.3052750505     -0.8806643351     0.9038259677
H       1.3052750505     0.8806643351     0.9038259677
H       2.1646165232     0.0000000000     -0.3599948239
C       -1.2672042126     -0.0000000181     0.2594997522
H       0.0000000000     -0.8738729764     -1.2430302913
H       -0.0000000606     0.8738729764     -1.2430302913
H       -1.3052750505     -0.8806643351     0.9038259677
H       -2.1646165232     0.0000006841     -0.3599948239
H       -1.3052750505     0.8806643351     0.9038259677
11
# Point 1 Energy = 0.0024562500000087084
C       1.2846991871     -0.0014793965     0.2726250124
C       -0.0266323938     0.0000319759     -0.5871893765
H       1.3247582152     -0.8835078450     0.9158801800
H       1.3187222051     0.8740569273     0.9250621363
H       2.1880447418     0.0044956465     -0.3381888678
C       -1.2499017949     0.0015011779     0.2459105718
H       -0.0614674815     -0.8737725396     -1.2421770727
H       -0.0590185548     0.8738770297     -1.2422486461
H       -1.2858064362     -0.8777710304     0.8913455637
H       -2.1413534431     -0.0046238794     -0.3820693238
H       -1.2920443056     0.8871925995     0.8820948416
11
# Point 2 Energy = 0.009922210000013365
C       1.3023764609     -0.0029351238     0.2852994840
C       -0.0532617955     0.0001278208     -0.5871336683
H       1.3442471395     -0.8862988118     0.9275244712
H       1.3323736537     0.8673762789     0.9458104713
H       2.2116237254     0.0088586469     -0.3166414698
C       -1.2328021018     0.0030221445     0.2318441114
H       -0.1228909253     -0.8734704197     -1.2396170782
H       -0.1179939131     0.8738886847     -1.2399034522
H       -1.2663605856     -0.8748306911     0.8784225586
H       -2.1182703831     -0.0093736890     -0.4044219455
H       -1.2790413357     0.8936358255     0.8598615362
11
# Point 3 Energy = 0.022688149999993357
C       1.3202255348     -0.0043654538     0.2975359064
C       -0.0798861579     0.0002872998     -0.5870418497
H       1.3637329058     -0.8890345094     0.9387747242
H       1.3462172907     0.8606286889     0.9660773280
H       2.2353387075     0.0130851335     -0.2953435549
C       -1.2159165057     0.0045605769     0.2172872806
H       -0.1842231923     -0.8729638760     -1.2353495497
H       -0.1768799516     0.8739060709     -1.2359941811
H       -1.2469465251     -0.8718462483     0.8650408087
H       -2.0953841032     -0.0142448504     -0.4270614238
H       -1.2662780636     0.8999878338     0.8371195303
11
# Point 4 Energy = 0.04125293999999258
C       1.3382363902     -0.0057688311     0.3093469415
C       -0.1065035754     0.0005100209     -0.5869147405
H       1.3832071159     -0.8917122576     0.9496467709
H       1.3602414514     0.8538205265     0.9858690370
H       2.2591754702     0.0171712881     -0.2742863036
C       -1.1992571718     0.0061139544     0.2022269606
H       -0.2454164730     -0.8722481270     -1.2293734038
H       -0.2356298174     0.8739258468     -1.2305201219
H       -1.2275740235     -0.8688207311     0.8511841338
H       -2.0727123914     -0.0192334902     -0.4499965916
H       -1.2537670356     0.9062424663     0.8138623364
11
# Point 5 Energy = 0.06634124000001407
C       1.3563995167     -0.0071438646     0.3207451625
C       -0.1331123764     0.0007954381     -0.5867528935
H       1.4026620076     -0.8943294132     0.9601563787
H       1.3744350584     0.8469582395     1.0051918972
H       2.2831202829     0.0211133581     -0.2534612988
C       -1.1828373009     0.0076795272     0.1866500897
H       -0.3064218257     -0.8713162389     -1.2216873583
H       -0.2941955325     0.8739431043     -1.2234805000
H       -1.2082539320     -0.8657572791     0.8368363915
H       -2.0502742215     -0.0243357807     -0.4732364224
H       -1.2415217372     0.9123935754     0.7900835722

    This sampling was finished on:   2020-07-02 18:36:53
=------------------------------------------------------------------------------=
Sampling finished.
=------------------------------------------------------------------------------=