11
# Point -3 Energy = 0.06873566000000153
C       1.2670534030     -0.0024409832     0.2582938985
C       -0.0000000485     0.0310163836     -0.5878440972
H       1.3218979375     -0.8370156312     0.8325579313
H       1.2844770909     0.9194100242     0.9759614758
H       2.1652364070     0.0465435580     -0.3601084477
C       -1.2670535845     -0.0024405218     0.2582938834
H       -0.0000001527     -1.0180674989     -1.3546406970
H       -0.0000000230     0.7340578855     -1.1298798944
H       -1.3218983461     -0.8370162382     0.8325585576
H       -2.1652356957     0.0465446895     -0.3601079056
H       -1.2844770485     0.9194089985     0.9759603142
11
# Point -2 Energy = 0.02908053999998117
C       1.2671287295     -0.0016411824     0.2590130623
C       -0.0000000342     0.0206899839     -0.5874236835
H       1.3167484023     -0.8519853060     0.8562711423
H       1.2918717156     0.9069523477     0.9518638109
H       2.1650841815     0.0309748836     -0.3601437472
C       -1.2671288538     -0.0016408831     0.2590130486
H       -0.0000000976     -0.9696571119     -1.3177152804
H       -0.0000000333     0.7803661172     -1.1678245517
H       -1.3167486737     -0.8519857110     0.8562715615
H       -2.1650837117     0.0309758735     -0.3601433874
H       -1.2918716853     0.9069516547     0.9518630436
11
# Point -1 Energy = 0.007061660000005077
C       1.2671789692     -0.0008258525     0.2594146026
C       -0.0000000180     0.0103522616     -0.5872124770
H       1.3112080411     -0.8665359866     0.8800296104
H       1.2988022358     0.8940347156     0.9278154425
H       2.1648772456     0.0154592542     -0.3601054800
C       -1.2671790330     -0.0008257131     0.2594145939
H       -0.0000000468     -0.9215911682     -1.2805105285
H       -0.0000000459     0.8269748848     -1.2055403275
H       -1.3112081762     -0.8665361893     0.8800298209
H       -2.1648770128     0.0154600950     -0.3601053010
H       -1.2988022196     0.8940343645     0.9278150625
11
# Point 0 Energy = 0
C       1.2672042126     0.0000000000     0.2594997522
C       0.0000000000     0.0000000000     -0.5872081259
H       1.3052750505     -0.8806643351     0.9038259677
H       1.3052750505     0.8806643351     0.9038259677
H       2.1646165232     0.0000000000     -0.3599948239
C       -1.2672042126     -0.0000000181     0.2594997522
H       0.0000000000     -0.8738729764     -1.2430302913
H       -0.0000000606     0.8738729764     -1.2430302913
H       -1.3052750505     -0.8806643351     0.9038259677
H       -2.1646165232     0.0000006841     -0.3599948239
H       -1.3052750505     0.8806643351     0.9038259677
11
# Point 1 Energy = 0.007081239999990885
C       1.2672044894     0.0008313737     0.2592698630
C       0.0000000197     -0.0103700813     -0.5874082975
H       1.2989475690     -0.8943672347     0.9276526338
H       1.3112965130     0.8668485382     0.8799044475
H       2.1643028695     -0.0153997794     -0.3598129743
C       -1.2672044226     0.0008312004     0.2592698752
H       0.0000000432     -0.8265060342     -1.2052781334
H       -0.0000000776     0.9210500761     -1.2802964860
H       -1.2989474353     -0.8943670317     0.9276524215
H       -2.1643030980     -0.0153992593     -0.3598131511
H       -1.3112965311     0.8668488982     0.8799048203
11
# Point 2 Energy = 0.029242740000000822
C       1.2671797806     0.0016633042     0.2587263824
C       0.0000000412     -0.0207611896     -0.5878106814
H       1.2922237275     -0.9076418414     0.9515017000
H       1.3168729101     0.8525947148     0.8560594986
H       2.1639370762     -0.0307370031     -0.3595611642
C       -1.2671796438     0.0016629782     0.2587264103
H       0.0000000831     -0.7794942668     -1.1672568569
H       -0.0000000968     0.9684966157     -1.3173402655
H       -1.2922234618     -0.9076414350     0.9515012736
H       -2.1639375290     -0.0307366543     -0.3595615152
H       -1.3168729479     0.8525954434     0.8560602370
11
# Point 3 Energy = 0.0693179799999939
C       1.2671300072     0.0024908949     0.2578708714
C       0.0000000643     -0.0311763200     -0.5884129936
H       1.2851016678     -0.9204856547     0.9753648461
H       1.3220104157     0.8379102686     0.8322994103
H       2.1635198699     -0.0460084046     -0.3592406496
C       -1.2671297975     0.0024904186     0.2578709183
H       0.0000001201     -0.7328421796     -1.1289681605
H       -0.0000001181     1.0162035474     -1.3541627621
H       -1.2851012719     -0.9204850446     0.9753642037
H       -2.1635205430     -0.0460082343     -0.3592411721
H       -1.3220104751     0.8379113743     0.8323005070

    This sampling was finished on:   2020-07-06 18:47:01
=------------------------------------------------------------------------------=
Sampling finished.
=------------------------------------------------------------------------------=