6
# Point -13 Energy = 0.05273107000004984
N       0.9276067310     1.3395087124     2.5025620410
O       0.0990313593     1.9449322604     1.9071161130
O       2.0129064836     1.6012495076     2.8697881910
N       -0.2770558286     -1.3168463123     3.0967725530
O       -0.9275400773     -1.5697356701     4.0649678190
O       0.1100424621     0.0958806119     2.6590931731
6
# Point -12 Energy = 0.046226629999978286
N       0.9120248489     1.3351988475     2.4995303025
O       0.1189604369     1.9735054472     1.8896505078
O       1.9952929587     1.5602652488     2.8977574833
N       -0.2594822664     -1.3160504924     3.1031103192
O       -0.8967536091     -1.5668304878     4.0782360038
O       0.0749487611     0.1089005467     2.6320152733
6
# Point -11 Energy = 0.04005427999999256
N       0.8958350149     1.3299425870     2.4966593794
O       0.1394813649     2.0004649375     1.8742623029
O       1.9751035715     1.5180248252     2.9255947306
N       -0.2407691683     -1.3133283717     3.1089080153
O       -0.8650392212     -1.5612089435     4.0908019386
O       0.0403795682     0.1210940754     2.6040735232
6
# Point -10 Energy = 0.03419915000006313
N       0.8790701528     1.3237412905     2.4939563858
O       0.1605210365     2.0257666986     1.8610217867
O       1.9523856753     1.4745706994     2.9531923307
N       -0.2209256660     -1.3086606164     3.1141680849
O       -0.8324677630     -1.5528839211     4.1026266561
O       0.0064076946     0.1324549588     2.5753346459
6
# Point -9 Energy = 0.02870058000002018
N       0.8617642682     1.3165969676     2.4914283517
O       0.1820020024     2.0493689541     1.8499948832
O       1.9271942770     1.4299471629     2.9804447933
N       -0.1999637723     -1.3020285505     3.1188947822
O       -0.7991122620     -1.5418710395     4.1136755598
O       -0.0268933832     0.1429756152     2.5458615197
6
# Point -8 Energy = 0.02357463999999254
N       0.8439524363     1.3085122463     2.4890822000
O       0.2038422632     2.0712326245     1.8412435702
O       1.8995923898     1.3841998522     3.0072481809
N       -0.1778985657     -1.2934140731     3.1230941939
O       -0.7650481023     -1.5281886919     4.1239183141
O       -0.0594492913     0.1526471519     2.5157134309
6
# Point -7 Energy = 0.018832120000070063
N       0.8256707840     1.2994903490     2.4869247350
O       0.2259550491     2.0913217175     1.8348262135
O       1.8696514767     1.3373752400     3.0334995225
N       -0.1547483901     -1.2827995607     3.1267743061
O       -0.7303532341     -1.5118580828     4.1333287446
O       -0.0911845555     0.1614594469     2.4849463684
6
# Point -6 Energy = 0.014492189999998573
N       0.8069564628     1.2895350812     2.4849626566
O       0.2482485849     2.1096036661     1.8307978275
O       1.8374520058     1.2895201046     3.0590961859
N       -0.1305350755     -1.2701677480     3.1299451163
O       -0.6951084289     -1.4929032651     4.1418847536
O       -0.1220224189     0.1694012711     2.4536133501
6
# Point -5 Energy = 0.010588460000008126
N       0.7878475987     1.2786508418     2.4832026191
O       0.2706258337     2.1260496121     1.8292102732
O       1.8030841530     1.2406809792     3.0839351790
N       -0.1052841804     -1.2555015861     3.1326188024
O       -0.6593976092     -1.4713511781     4.1495682475
O       -0.1518846657     0.1764604410     2.4217647687
6
# Point -4 Energy = 0.007171900000003006
N       0.7683831916     1.2668426791     2.4816513824
O       0.2929841968     2.1406346325     1.8301124092
O       1.7666487182     1.1909035835     3.1079123194
N       -0.0790252482     -1.2387840695     3.1348099746
O       -0.6233083145     -1.4472316914     4.1563650712
O       -0.1806914139     0.1826239757     2.3894487332
6
# Point -3 Energy = 0.004305649999992056
N       0.7486028975     1.2541164425     2.4803161596
O       0.3152151159     2.1533379138     1.8335502301
O       1.7282583946     1.1402322361     3.1309211358
N       -0.0517920431     -1.2199980199     3.1365360784
O       -0.5869324461     -1.4205776605     4.1622649312
O       -0.2083607886     0.1878781979     2.3567113549
6
# Point -2 Energy = 0.0020651900000530077
N       0.7285465182     1.2404791634     2.4792054389
O       0.3372034116     2.1641428949     1.8395670805
O       1.6880397448     1.0887092385     3.1528511416
N       -0.0236226558     -1.1991257861     3.1378181405
O       -0.5503676682     -1.3914250151     4.1672612573
O       -0.2348082206     0.1922086143     2.3235968313
6
# Point -1 Energy = 0.0005589000000441047
N       0.7082526363     1.2259400993     2.4783311664
O       0.3588258254     2.1730374661     1.8482042270
O       1.6461369755     1.0363741743     3.1735843272
N       0.0054409000     -1.1761487342     3.1386824715
O       -0.5137206593     -1.3598129328     4.1713508351
O       -0.2599445478     0.1955990371     2.2901468629
6
# Point 0 Energy = 0
N       0.6877539257     1.2105143434     2.4777162057
O       0.3799464281     2.1800146099     1.8595030004
O       1.6027221962     0.9832628380     3.1929848041
N       0.0353553176     -1.1510459660     3.1391660238
O       -0.4771174168     -1.3257843361     4.1745324610
O       -0.2836693207     0.1980276207     2.2563973950
6
# Point 1 Energy = 0.0006607799999756025
N       0.6670468964     1.1942464080     2.4774427273
O       0.4003886030     2.1850766208     1.8735187889
O       1.5580533365     0.9294031020     3.2108360730
N       0.0660967650     -1.1237874326     3.1393494724
O       -0.4407668979     -1.2893888692     4.1767975775
O       -0.3058275729     0.1994392808     2.2223552509
6
# Point 2 Energy = 0.00329281000000492
N       0.6380387500     1.1836887145     2.4908584846
O       0.4132533305     2.1890323282     1.8935205839
O       1.5267923704     0.8737819499     3.2103446027
N       0.1036050132     -1.0927626533     3.1478872040
O       -0.4213146701     -1.2514823278     4.1754032406
O       -0.3153836639     0.1927310983     2.1822857743
6
# Point 3 Energy = 0.007453270000041812
N       0.6237262269     1.1603542710     2.4802244760
O       0.4371615904     2.1896756968     1.9104632832
O       1.4678598080     0.8199281836     3.2393383103
N       0.1311576579     -1.0624578320     3.1404133522
O       -0.3723820825     -1.2100459296     4.1778541706
O       -0.3425320706     0.1975347201     2.1520062977
6
# Point 4 Energy = 0.014939449999985754
N       0.6032145755     1.1411387290     2.4800759721
O       0.4550042547     2.1890022693     1.9326597777
O       1.4197477685     0.7641103555     3.2529353080
N       0.1635449629     -1.0286660767     3.1393824015
O       -0.3365250067     -1.1668149596     4.1776372013
O       -0.3599954249     0.1962187923     2.1176092294
6
# Point 5 Energy = 0.02658361000004561
N       0.5827975833     1.1210409639     2.4801371505
O       0.4717307309     2.1863764304     1.9575613426
O       1.3710002979     0.7076565740     3.2646893654
N       0.1963732747     -0.9926675750     3.1380679115
O       -0.3011588069     -1.1214255433     4.1765903958
O       -0.3757519499     0.1940082598     2.0832537241
6
# Point 6 Energy = 0.043808840000053806
N       0.5625335545     1.1000684825     2.4804056060
O       0.4872125317     2.1817934857     1.9851570773
O       1.3218562672     0.6505847880     3.2744777111
N       0.2295349607     -0.9544451676     3.1365004113
O       -0.2663928120     -1.0739394024     4.1747429638
O       -0.3897533719     0.1909269237     2.0490161204
6
# Point 7 Energy = 0.06826047999999219
N       0.5424829279     1.0782296028     2.4808783904
O       0.5013265309     2.1752457716     2.0154242394
O       1.2725718115     0.5929116917     3.2821769255
N       0.2629103839     -0.9139830464     3.1347106403
O       -0.2323373725     -1.0244219848     4.1721287262
O       -0.4019631517     0.1870070750     2.0149809683

    This sampling was finished on:   2020-07-13 14:55:17
=------------------------------------------------------------------------------=
Sampling finished.
=------------------------------------------------------------------------------=