6
# Point -3 Energy = 0.05391618000004428
N       0.6862917167     1.2198540788     2.4753992575
O       0.3960569484     2.1707687994     1.8423067300
O       1.5950257103     0.9863568309     3.2031921351
N       -0.0030542840     -1.1545916824     3.1975441785
O       -0.4323538498     -1.3275539030     4.1028489767
O       -0.2969751115     0.2001549862     2.2790086122
6
# Point -2 Energy = 0.020744189999959417
N       0.6867756910     1.2168630517     2.4761453543
O       0.3909027711     2.1739908941     1.8478056666
O       1.5975066238     0.9853805251     3.1998776489
N       0.0094991914     -1.1533651435     3.1781185138
O       -0.4470885334     -1.3274451046     4.1269895796
O       -0.2926046138     0.1995648871     2.2713631267
6
# Point -1 Energy = 0.004501790000063011
N       0.6872626013     1.2137494702     2.4769180418
O       0.3855323293     2.1770742185     1.8535371536
O       1.6000718141     0.9843482179     3.1964762257
N       0.0223050273     -1.1521866866     3.1586583779
O       -0.4620124293     -1.3268506231     4.1508847325
O       -0.2881682126     0.1988545129     2.2638253583
6
# Point 0 Energy = 0
N       0.6877539257     1.2105143434     2.4777162057
O       0.3799464281     2.1800146099     1.8595030004
O       1.6027221962     0.9832628380     3.1929848041
N       0.0353553176     -1.1510459660     3.1391660238
O       -0.4771174168     -1.3257843361     4.1745324610
O       -0.2836693207     0.1980276207     2.2563973950
6
# Point 1 Energy = 0.003399450000017623
N       0.6882511795     1.2071587864     2.4785387003
O       0.3741461443     2.1828077995     1.8657048934
O       1.6054586188     0.9821275307     3.1894002933
N       0.0486421046     -1.1499326937     3.1196435507
O       -0.4923957828     -1.3242601488     4.1979314173
O       -0.2791111343     0.1970878358     2.2490810350
6
# Point 2 Energy = 0.011819580000008045
N       0.6887558973     1.2036840317     2.4793843806
O       0.3681328060     2.1854494146     1.8721444023
O       1.6082819036     0.9809456582     3.1857195234
N       0.0621574130     -1.1488366441     3.1000929460
O       -0.5078402801     -1.3222919912     4.2210808404
O       -0.2744966096     0.1960386407     2.2418777972
6
# Point 3 Energy = 0.0231042799999841
N       0.6892696058     1.2000914476     2.4802521533
O       0.3619079627     2.1879349807     1.8788229896
O       1.6111929078     0.9797208021     3.1819391653
N       0.0758932942     -1.1477476573     3.0805161424
O       -0.5234442117     -1.3198938207     4.2439805093
O       -0.2698284288     0.1948833573     2.2347889301
6
# Point 4 Energy = 0.03566628000004357
N       0.6897937793     1.1963825698     2.4811410625
O       0.3554733358     2.1902599234     1.8857420300
O       1.6141926307     0.9784567687     3.1780555932
N       0.0898418899     -1.1466556366     3.0609151030
O       -0.5392015623     -1.3170796338     4.2666306821
O       -0.2651089433     0.1936251183     2.2278154192
6
# Point 5 Energy = 0.048314510000011524
N       0.6903297560     1.1925591613     2.4820504505
O       0.3488307313     2.1924195685     1.8929028473
O       1.6172824103     0.9771576031     3.1740646300
N       0.1039955388     -1.1455505391     3.0412919653
O       -0.5551072335     -1.3138634961     4.2890320077
O       -0.2603400729     0.1922668123     2.2209579892
6
# Point 6 Energy = 0.06037513000001127
N       0.6908785665     1.1886233383     2.4829802912
O       0.3419818605     2.1944091418     1.9003067951
O       1.6204643309     0.9758276200     3.1699610206
N       0.1183469834     -1.1444223468     3.0216493187
O       -0.5711575166     -1.3102596114     4.3111853710
O       -0.2555230947     0.1908109681     2.2142170934

    This sampling was finished on:   2020-07-13 14:55:17
=------------------------------------------------------------------------------=
Sampling finished.
=------------------------------------------------------------------------------=