6
# Point -7 Energy = 0.058020310000017616
N       0.7104006181     1.1074288128     2.5493315222
O       0.4265984375     2.0594781463     1.9663437222
O       1.6778862055     1.0979041819     3.2410923537
N       0.0620036197     -1.1184357316     3.1102745432
O       -0.4013639682     -1.2121840596     4.1637134141
O       -0.5305337826     0.1607977601     2.0695443345
6
# Point -6 Energy = 0.04403585000005705
N       0.7079968192     1.1263199380     2.5371293893
O       0.4216495498     2.0810734693     1.9489540343
O       1.6698282630     1.0848131944     3.2341027982
N       0.0555627384     -1.1285601946     3.1159174845
O       -0.4140564322     -1.2335497948     4.1676792157
O       -0.4959898082     0.1648924976     2.0965169680
6
# Point -5 Energy = 0.03166357999992897
N       0.7053083946     1.1438094097     2.5255475423
O       0.4161190810     2.1012119557     1.9322580060
O       1.6608077399     1.0705845286     3.2271438618
N       0.0500120698     -1.1368186785     3.1210402844
O       -0.4261097629     -1.2532014209     4.1708376348
O       -0.4611463923     0.1694033152     2.1234725606
6
# Point -4 Energy = 0.021027650000007725
N       0.7023411564     1.1599011713     2.5146047418
O       0.4100145668     2.1198912118     1.9162650051
O       1.6508604238     1.0552418892     3.2202258789
N       0.0453433352     -1.1432366954     3.1256486382
O       -0.4375265435     -1.2711366729     4.1731891373
O       -0.4260418087     0.1743282058     2.1503664886
6
# Point -3 Energy = 0.012304529999937586
N       0.6991012063     1.1746019688     2.5043204029
O       0.4033428830     2.1371102613     1.9009839551
O       1.6400253939     1.0388107610     3.2133568774
N       0.0415477982     -1.1478408655     3.1297499270
O       -0.4483130859     -1.2873563580     4.1747349355
O       -0.3907130654     0.1796633423     2.1771537920
6
# Point -2 Energy = 0.005705330000012054
N       0.6955935695     1.1879224249     2.4947168103
O       0.3961093871     2.1528694373     1.8864234600
O       1.6283470519     1.0213182627     3.2065401802
N       0.0386174606     -1.1506587796     3.1333544914
O       -0.4584818979     -1.3018645198     4.1754762628
O       -0.3551944412     0.1854022843     2.2037886852
6
# Point -1 Energy = 0.0014924800000244431
N       0.6918183874     1.1998802012     2.4858255155
O       0.3883153784     2.1671701899     1.8725923727
O       1.6158811462     1.0027928210     3.1997672367
N       0.0365483871     -1.1517184815     3.1364794406
O       -0.4680590176     -1.3146690363     4.1754124172
O       -0.3195131513     0.1915334156     2.2302229073
6
# Point 0 Energy = 0
N       0.6877539257     1.2105143434     2.4777162057
O       0.3799464281     2.1800146099     1.8595030004
O       1.6027221962     0.9832628380     3.1929848041
N       0.0353553176     -1.1510459660     3.1391660238
O       -0.4771174168     -1.3257843361     4.1745324610
O       -0.2836693207     0.1980276207     2.2563973950
6
# Point 1 Energy = 0.0016466399999899295
N       0.6824556102     1.2206449339     2.4720267448
O       0.3703364901     2.1914116714     1.8473935087
O       1.5904630760     0.9626827528     3.1843335494
N       0.0358156467     -1.1485290784     3.1423981851
O       -0.4875488806     -1.3353570369     4.1724201532
O       -0.2465308124     0.2041358671     2.2817277487
6
# Point 2 Energy = 0.006882779999955346
N       0.6793182716     1.2274380927     2.4630317099
O       0.3618704181     2.2013721709     1.8354841595
O       1.5736910550     0.9413350590     3.1803998607
N       0.0351006880     -1.1447134138     3.1427112710
O       -0.4926897573     -1.3429444768     4.1705659118
O       -0.2122995453     0.2125016779     2.3081069772
6
# Point 3 Energy = 0.017332780000003822
N       0.6588757753     1.2473843580     2.4838262546
O       0.3412670917     2.2090041638     1.8267901825
O       1.5836989781     0.9182156163     3.1438861305
N       0.0502176611     -1.1366921406     3.1605452029
O       -0.5313952332     -1.3514910025     4.1595747328
O       -0.1576731429     0.2085681148     2.3256773866
6
# Point 4 Energy = 0.0303685499999915
N       0.6675227659     1.2413055413     2.4557429930
O       0.3399574418     2.2170240191     1.8151482938
O       1.5464444230     0.8953769614     3.1630517040
N       0.0401866070     -1.1315208758     3.1468413030
O       -0.5108324310     -1.3541617413     4.1620128440
O       -0.1382876767     0.2269652053     2.3575027522
6
# Point 5 Energy = 0.049716710000041076
N       0.6629392900     1.2449603220     2.4505037533
O       0.3293635206     2.2226640804     1.8056344184
O       1.5293394000     0.8713764995     3.1577659724
N       0.0425538155     -1.1228072255     3.1467085379
O       -0.5160253142     -1.3570248937     4.1574096404
O       -0.1031795819     0.2358203272     2.3822775676
6
# Point 6 Energy = 0.07479875000001357
N       0.6582428647     1.2473198915     2.4459530023
O       0.3182976172     2.2269101248     1.7968912492
O       1.5116713007     0.8465981063     3.1527030918
N       0.0455954190     -1.1125876994     3.1460966793
O       -0.5206002081     -1.3582786628     4.1521148353
O       -0.0682158634     0.2450273494     2.4065410320

    This sampling was finished on:   2020-07-13 14:55:17
=------------------------------------------------------------------------------=
Sampling finished.
=------------------------------------------------------------------------------=