6
# Point -1 Energy = 0.3918661899999165
N       0.3018848595     1.5354005563     3.1323635665
O       0.1034498152     2.1912312718     1.9692268564
O       2.2278808127     0.9485653218     2.4351623434
N       0.3430942533     -1.0899163726     3.5310901994
O       -1.2316919683     -1.3762862614     4.0199474169
O       0.2003733577     -0.1140054060     2.0125095074
6
# Point 0 Energy = 0
N       0.6877539257     1.2105143434     2.4777162057
O       0.3799464281     2.1800146099     1.8595030004
O       1.6027221962     0.9832628380     3.1929848041
N       0.0353553176     -1.1510459660     3.1391660238
O       -0.4771174168     -1.3257843361     4.1745324610
O       -0.2836693207     0.1980276207     2.2563973950
6
# Point 1 Energy = 0.3303930799999648
N       0.3411782346     1.5006162078     3.0643366620
O       0.1304488399     2.1910564280     1.9604875655
O       2.1645280233     0.9540354582     2.5108087897
N       0.3131249734     -1.1006834132     3.4887118427
O       -1.1574071940     -1.3649453265     4.0334867599
O       0.1531182529     -0.0850902444     2.0424682702

    This sampling was finished on:   2020-07-13 14:55:17
=------------------------------------------------------------------------------=
Sampling finished.
=------------------------------------------------------------------------------=