6
# Point 0 Energy = 0
N       0.6877539257     1.2105143434     2.4777162057
O       0.3799464281     2.1800146099     1.8595030004
O       1.6027221962     0.9832628380     3.1929848041
N       0.0353553176     -1.1510459660     3.1391660238
O       -0.4771174168     -1.3257843361     4.1745324610
O       -0.2836693207     0.1980276207     2.2563973950
6
# Point 1 Energy = 0.00027910000000019863
N       0.6981094180     1.2041669889     2.4714428390
O       0.3117987280     2.1946215525     1.9360667115
O       1.6506739069     0.9826160619     3.1377426453
N       0.0528304931     -1.1464407670     3.1773926867
O       -0.5479432331     -1.2929265042     4.1687343631
O       -0.2204781828     0.1529517777     2.2089206444
6
# Point 2 Energy = 0.0010254299999701288
N       0.7104756006     1.1975602164     2.4664520649
O       0.2423949330     2.1946943565     2.0153558614
O       1.7030454943     0.9930887985     3.0775296342
N       0.0634069326     -1.1391790777     3.2154904558
O       -0.6200334031     -1.2614445817     4.1552276078
O       -0.1542984272     0.1102693979     2.1702442660
6
# Point 3 Energy = 0.0022015399999872898
N       0.7244906988     1.1906803334     2.4625729037
O       0.1743257131     2.1809781649     2.0972066723
O       1.7575297898     1.0139559749     3.0121346273
N       0.0674328153     -1.1295549433     3.2530728082
O       -0.6921286436     -1.2310730889     4.1350625570
O       -0.0866592433     0.0700026689     2.1402503216
6
# Point 4 Energy = 0.0038077599999724043
N       0.7397669830     1.1835228970     2.4596347521
O       0.1100570916     2.1545644264     2.1814125561
O       1.8115882268     1.0443698816     2.9415631805
N       0.0655182812     -1.1178055782     3.2899255672
O       -0.7632720275     -1.2015725676     4.1092150012
O       -0.0186674250     0.0319100507     2.1185488329
6
# Point 5 Energy = 0.005775200000073255
N       0.7559250163     1.1760957664     2.4574845334
O       0.0517819650     2.1168394760     2.2676224108
O       1.8626712032     1.0833353538     2.8660524397
N       0.0583889200     -1.1040905918     3.3259892639
O       -0.8327756982     -1.1727993793     4.0784852351
O       0.0489997238     -0.0043915151     2.1046660071
6
# Point 6 Energy = 0.007932059999973262
N       0.7726128646     1.1684218305     2.4559970367
O       0.0013342142     2.0694504405     2.3552971022
O       1.9083885533     1.1296799076     2.7860455165
N       0.0467754164     -1.0884920685     3.3613182791
O       -0.9001506128     -1.1447487943     4.0434559022
O       0.1160306944     -0.0393222058     2.0981860533
6
# Point 7 Energy = 0.010163099999999758
N       0.7895132840     1.1605419268     2.4550803845
O       -0.0398570503     2.0142863123     2.4437154275
O       1.9466296302     1.1820270873     2.7021421171
N       0.0313440725     -1.0710262676     3.3960318929
O       -0.9650281433     -1.1175795381     4.0044895015
O       0.1823893370     -0.0732604109     2.0988405665
6
# Point 8 Energy = 0.012249890000020969
N       0.8063431443     1.1525185037     2.4546791439
O       -0.0707902104     1.9534678789     2.5320158488
O       1.9756437652     1.2387760785     2.6150382385
N       0.0126594722     -1.0516610548     3.4302638933
O       -1.0270870353     -1.0916292896     3.9617478545
O       0.2482219941     -0.1064830068     2.1065549109
6
# Point 9 Energy = 0.013892380000015692
N       0.8228487205     1.1444403974     2.4547771609
O       -0.0908987466     1.8893389873     2.6192625603
O       1.9940937686     1.2980884589     2.5254642258
N       -0.0088320661     -1.0303377709     3.4641105490
O       -1.0859888307     -1.0674267871     3.9152238055
O       0.3137682844     -0.1391141756     2.1214615885
6
# Point 10 Energy = 0.014795020000065051
N       0.8387994422     1.1364286492     2.4554012988
O       -0.1000431673     1.8244505705     2.7045281340
O       2.0010921349     1.3578842017     2.4341295972
N       -0.0328065424     -1.0070001243     3.4975735500
O       -1.1413209663     -1.0456999073     3.8647840612
O       0.3792702289     -0.1710742800     2.1438832488
6
# Point 11 Energy = 0.01478908000001411
N       0.8539819597     1.1286424597     2.4566260353
O       -0.0984800520     1.7615262581     2.7869864499
O       1.9962242931     1.4158538157     2.3416850098
N       -0.0590569406     -0.9816350413     3.5304955509
O       -1.1925484613     -1.0273711460     3.8102287129
O       0.4448703312     -0.2020272363     2.1742781312
6
# Point 12 Energy = 0.013947700000016994
N       0.8681961442     1.1212829811     2.4585771876
O       -0.0867968366     1.7033941664     2.8660066467
O       1.9795561336     1.4695016578     2.2487151433
N       -0.0874760864     -0.9543299227     3.5624922939
O       -1.2389815194     -1.0135229409     3.7513755517
O       0.5104932948     -0.2313368318     2.2131330668
6
# Point 13 Energy = 0.012694069999952262
N       0.8812547654     1.1145907846     2.4614309153
O       -0.0658016786     1.6528661288     2.9412303894
O       1.9516142568     1.5162445676     2.1557772743
N       -0.1180212321     -0.9253446920     3.5928979422
O       -1.2797759605     -1.0053087135     3.6881721107
O       0.5757209790     -0.2580589656     2.2607912580
6
# Point 14 Energy = 0.011487769999973807
N       0.8929886349     1.1088314395     2.4654024869
O       -0.0363679169     1.6125494641     3.0126029446
O       1.9133196143     1.5535920204     2.0634919638
N       -0.1506550305     -0.8951825918     3.6207563559
O       -1.3139906492     -1.0037905790     3.6208211502
O       0.6396964776     -0.2810106434     2.3172249886
6
# Point 15 Energy = 0.010558989999992718
N       0.9032581415     1.1042650015     2.4707202777
O       0.0007445436     1.5845960770     3.0803226507
O       1.8658569499     1.5794146607     1.9726683868
N       -0.1852686042     -0.8646237474     3.6448980832
O       -1.3407189713     -1.0097138342     3.5498782085
O       0.7011190706     -0.2989490476     2.3818122832
6
# Point 16 Energy = 0.010039909999932206
N       0.9119695037     1.1011018008     2.4775864276
O       0.0450401028     1.5704315679     3.1446896978
O       1.8104851886     1.5922582661     1.8844133997
N       -0.2216123724     -0.8346762778     3.6641201445
O       -1.3592779294     -1.0232813485     3.4762620373
O       0.7583866368     -0.3108448987     2.4532281830
6
# Point 17 Energy = 0.009903070000063963
N       0.9190901924     1.0994574664     2.4861351266
O       0.0963484097     1.5705451673     3.2058823923
O       1.7483362311     1.5916010312     1.8001576711
N       -0.2592736531     -0.8064253049     3.6774270347
O       -1.3693881688     -1.0440331279     3.4011414122
O       0.8098781187     -0.3161561221     2.5295562530
6
# Point 18 Energy = 0.009981809999999314
N       0.9246557702     1.0993265018     2.4964050898
O       0.1547621085     1.5844231398     3.2637438618
O       1.6802805116     1.5779400278     1.7215633683
N       -0.2977246107     -0.7808209944     3.6842344117
O       -1.3712550176     -1.0709119453     3.3257303442
O       0.8542723680     -0.3149676198     2.6086228142
6
# Point 19 Energy = 0.010094949999995606
N       0.9287631657     1.1005871987     2.5083370329
O       0.2204777109     1.6106546242     3.3176742466
O       1.6069172003     1.5526641692     1.6503435197
N       -0.3364218161     -0.7584956380     3.6844428397
O       -1.3655038328     -1.1024979942     3.2510861245
O       0.8907587021     -0.3079232500     2.6884161266
6
# Point 20 Energy = 0.010176080000064758
N       0.9315522490     1.1030341445     2.5217931252
O       0.2936107767     1.6471625622     3.3666710647
O       1.5286802012     1.5177787279     1.5880669931
N       -0.3749065536     -0.7396849389     3.6783650760
O       -1.3530062437     -1.1373025702     3.1779985341
O       0.9190607005     -0.2959988157     2.7674050969
6
# Point 21 Energy = 0.010344500000030621
N       0.9331829659     1.1064219465     2.5365854063
O       0.3740532996     1.6914713038     3.4094857760
O       1.4459945465     1.4756005171     1.5360101636
N       -0.4128627677     -0.7242627456     3.6665683010
O       -1.3346837913     -1.1740029841     3.1069924088
O       0.9393068770     -0.2802389278     2.8446578342
6
# Point 22 Energy = 0.01080386000000999
N       0.9338153333     1.1105038513     2.5525005159
O       0.4614035836     1.7409370660     3.4448260675
O       1.3594129842     1.4285149687     1.4950720695
N       -0.4501229504     -0.7118434988     3.6497114634
O       -1.3113595920     -1.2115657480     3.0384058266
O       0.9518417713     -0.2615575292     2.9197839472
6
# Point 23 Energy = 0.011564079999971
N       0.9335958109     1.1150574018     2.5693146839
O       0.5549626776     1.7929095597     3.4715436969
O       1.2696956348     1.3788245447     1.4657372497
N       -0.4866380763     -0.7018975646     3.6284262250
O       -1.2836810239     -1.2492718732     2.9724922599
O       0.9570561071     -0.2406329586     2.9927857745
6
# Point 24 Energy = 0.012650919999998678
N       0.9326497358     1.1198974311     2.5867989329
O       0.6537752629     1.8448279429     3.4887792935
O       1.1778299970     1.3286740061     1.4480635238
N       -0.5224326685     -0.6938465363     3.6032510558
O       -1.2521008894     -1.2866855393     2.9095135948
O       0.9552696924     -0.2178781947     3.0638934893
6
# Point 25 Energy = 0.013853350000033515
N       0.9310776384     1.1248805161     2.6047171416
O       0.7566931089     1.8942694645     3.4960613352
O       1.0850055754     1.2800247188     1.4416798176
N       -0.5575584001     -0.6871303464     3.5746069704
O       -1.2168939730     -1.3236021595     2.8498134176
O       0.9466671805     -0.1934530836     3.1334212076
6
# Point 26 Energy = 0.014838060000045061
N       0.9289531135     1.1299052565     2.6228198729
O       0.8624454704     1.9389702099     3.4933682197
O       0.9925592209     1.2346550381     1.4457892459
N       -0.5920504904     -0.6812523190     3.5427998587
O       -1.1781909884     -1.3599956249     2.7938724242
O       0.9312748042     -0.1672934507     3.2016502687
6
# Point 27 Energy = 0.015157380000061949
N       0.9263206110     1.1349114565     2.6408362978
O       0.9697063135     1.9768332263     3.4811631412
O       0.9019026079     1.1941732066     1.4591801902
N       -0.6258856745     -0.6758125926     3.5080392531
O       -1.1360210937     -1.3959704632     2.7423500497
O       0.9089683660     -0.1391457237     3.2687309580
6
# Point 28 Energy = 0.014433540000027278
N       0.9231924460     1.1398797338     2.6584662090
O       1.0771509580     2.0059355244     3.4604063150
O       0.8144383436     1.1600364083     1.4802533232
N       -0.6589392792     -0.6705390177     3.4704699338
O       -1.0903615608     -1.4317160119     2.6961122263
O       0.8795102225     -0.1086075269     3.3345918826
6
# Point 29 Energy = 0.012683520000052795
N       0.9195453705     1.1448316401     2.6753744148
O       1.1834951510     2.0245437773     3.4325407495
O       0.7314689080     1.1335729008     1.5070765779
N       -0.6909414400     -0.6653204546     3.4302177945
O       -1.0411968948     -1.4674557073     2.6562374242
O       0.8426200354     -0.0751830464     3.3988529292
6
# Point 30 Energy = 0.010236200000008466
N       0.9153182501     1.1498289973     2.6911907499
O       1.2875096256     2.0311481562     3.3994378181
O       0.6541042417     1.1160035843     1.5374826265
N       -0.7214385286     -0.6602408943     3.3874530104
O       -0.9885887457     -1.5033847266     2.6239841502
O       0.7980862869     -0.0383660070     3.4607515349
6
# Point 31 Energy = 0.007555910000007771
N       0.9104136127     1.1549698903     2.7055200622
O       1.3880057578     2.0245219685     3.3632804407
O       0.5831797307     1.1084555145     1.5692217959
N       -0.7497745640     -0.6556039748     3.3424693521
O       -0.9327511379     -1.5395945539     2.6006973586
O       0.7459177308     0.0022402653     3.5191108805
6
# Point 32 Energy = 0.0049867799999105955
N       0.9047064139     1.1603781620     2.7179665813
O       1.4837961514     2.0038077291     3.3263623660
O       0.5192049598     1.1119544746     1.6001727157
N       -0.7751147358     -0.6519284587     3.2957663027
O       -0.8741132031     -1.5759947607     2.5876376183
O       0.6865115439     0.0467719637     3.5723943061
6
# Point 33 Energy = 0.002847159999930682
N       0.8980621018     1.1661844382     2.7281741178
O       1.5736480939     1.9686157557     3.2908030697
O       0.4623688472     1.1273812307     1.6285900831
N       -0.7965302850     -0.6498930739     3.2481029718
O       -0.8133397401     -1.6122574649     2.5857453025
O       0.6207821122     0.0949582241     3.6188843450
6
# Point 34 Energy = 0.001271370000040406
N       0.8903621680     1.1725004406     2.7358763950
O       1.6562605399     1.9191041783     3.2582233411
O       0.4126183711     1.1553833539     1.6533389959
N       -0.8131418898     -0.6502233140     3.2004826157
O       -0.7512820031     -1.6478173505     2.5954000152
O       0.5501739440     0.1460418016     3.6569785272
6
# Point 35 Energy = 0.00034371999993254576
N       0.8815302788     1.1793933360     2.7409429831
O       1.7302927861     1.8560034689     3.2294762203
O       0.3698000643     1.1962547896     1.6740469106
N       -0.8242820237     -0.6535440547     3.1540432267
O       -0.6888583308     -1.6819452759     2.6162730040
O       0.4765083554     0.1988268460     3.6855175453
6
# Point 36 Energy = 3.276000001051216e-05
N       0.8715497430     1.1868692630     2.7434027771
O       1.7944486676     1.7805666695     3.2045369809
O       0.3338175779     1.2498195233     1.6911191965
N       -0.8296121649     -0.6602506546     3.1098766151
O       -0.6269060162     -1.7138765753     2.6473529972
O       0.4016933227     0.2518608840     3.7040113232

    This sampling was finished on:   2020-07-13 14:55:17
=------------------------------------------------------------------------------=
Sampling finished.
=------------------------------------------------------------------------------=