6
# Point -8 Energy = 0.05322832999996763
N       0.6484477935     1.3417273053     2.4195818388
O       0.5189170751     2.4031552479     1.9381612758
O       1.5408462756     0.9981780003     3.0768456004
N       0.1114979053     -1.3672702587     3.1813964698
O       -0.5566533513     -1.2134211993     4.1503515893
O       -0.3180645681     -0.0673799855     2.3339631158
6
# Point -7 Energy = 0.043418159999930594
N       0.6543515908     1.3254095570     2.4279771016
O       0.5002064568     2.3773228062     1.9279214416
O       1.5517254861     0.9973980492     3.0915061176
N       0.1030561654     -1.3406934504     3.1745989086
O       -0.5492679994     -1.2286010170     4.1571506732
O       -0.3150805696     -0.0358468352     2.3211456474
6
# Point -6 Energy = 0.03376430999992408
N       0.6598209027     1.3091997295     2.4363603782
O       0.4817964388     2.3508003260     1.9178165870
O       1.5618957939     0.9963369183     3.1058991770
N       0.0943968385     -1.3139239691     3.1683504551
O       -0.5413405510     -1.2435293947     4.1627963089
O       -0.3115782929     -0.0038945002     2.3090769838
6
# Point -5 Energy = 0.024747539999964374
N       0.6648478999     1.2930983435     2.4447108204
O       0.4636712032     2.3236380167     1.9078569472
O       1.5713791265     0.9949801656     3.1199961171
N       0.0855446598     -1.2869832183     3.1626705166
O       -0.5329247782     -1.2581815338     4.1672884132
O       -0.3075269811     0.0284373362     2.2977770756
6
# Point -4 Energy = 0.01668783000008034
N       0.6694261919     1.2771074601     2.4530074854
O       0.4458129895     2.2958867783     1.8980519327
O       1.5801983109     0.9933160675     3.1337688872
N       0.0765247666     -1.2598932760     3.1575782228
O       -0.5240759573     -1.2725341564     4.1706289810
O       -0.3028951715     0.0611062364     2.2872643809
6
# Point -3 Energy = 0.009896680000053948
N       0.6735507868     1.2612307301     2.4612294472
O       0.4282022251     2.2675981314     1.8884101803
O       1.5883769234     0.9913356790     3.1471901589
N       0.0673626663     -1.2326769354     3.1530922848
O       -0.5148506472     -1.2865654137     4.1728221256
O       -0.2976508242     0.0940669185     2.2775556931
6
# Point -2 Energy = 0.004669160000048578
N       0.6772180535     1.2454734380     2.4693559074
O       0.4108176712     2.2388241485     1.8789396099
O       1.5959391364     0.9890328918     3.1602334460
N       0.0580841951     -1.2053577456     3.1492308441
O       -0.5053064487     -1.3002547996     4.1738741129
O       -0.2917614775     0.1272711768     2.2686659696
6
# Point -1 Energy = 0.002683640000043397
N       0.6665502593     1.2415201979     2.5011685061
O       0.3837454238     2.2101613057     1.8739405454
O       1.6263575359     0.9845042882     3.1443160966
N       0.0594743115     -1.1756711753     3.1604392719
O       -0.5233525169     -1.3150542672     4.1683252639
O       -0.2677838836     0.1495287606     2.2521102061
6
# Point 0 Energy = 0
N       0.6877539257     1.2105143434     2.4777162057
O       0.3799464281     2.1800146099     1.8595030004
O       1.6027221962     0.9832628380     3.1929848041
N       0.0353553176     -1.1510459660     3.1391660238
O       -0.4771174168     -1.3257843361     4.1745324610
O       -0.2836693207     0.1980276207     2.2563973950
6
# Point 1 Energy = 0.001346309999917139
N       0.6904758919     1.1947453071     2.4847111633
O       0.3631243019     2.1501806023     1.8506051951
O       1.6079537541     0.9801354485     3.2054576808
N       0.0257562054     -1.1235786296     3.1371162848
O       -0.4664237856     -1.3383510046     4.1721973504
O       -0.2758952375     0.2318573862     2.2502122155
6
# Point 2 Energy = 0.005681709999976192
N       0.6925818594     1.1792593356     2.4918018290
O       0.3462951572     2.1200855342     1.8419637217
O       1.6129397463     0.9766916597     3.2171309433
N       0.0162891347     -1.0960840359     3.1359346100
O       -0.4559938114     -1.3505280904     4.1686952203
O       -0.2671209561     0.2655647068     2.2447735658
6
# Point 3 Energy = 0.013520210000024235
N       0.6941647295     1.1639959071     2.4988143516
O       0.3295074634     2.0897769313     1.8335518685
O       1.6175511626     0.9729478395     3.2281741248
N       0.0069019072     -1.0686071497     3.1355289658
O       -0.4456943000     -1.3622878430     4.1640875233
O       -0.2574398326     0.2991634247     2.2401430561
6
# Point 4 Energy = 0.025509220000060395
N       0.6952523388     1.1489510692     2.5056891622
O       0.3127563823     2.0593065180     1.8253651996
O       1.6217701289     0.9689178970     3.2386217408
N       -0.0024014417     -1.0411821312     3.1358796806
O       -0.4355289172     -1.3736124722     4.1584072485
O       -0.2468573610     0.3326082291     2.2363368583
6
# Point 5 Energy = 0.042506470000034824
N       0.6958603903     1.1341335534     2.5123906298
O       0.2960257331     2.0287271036     1.8174039415
O       1.6256012669     0.9646176599     3.2484818047
N       -0.0116054819     -1.0138415206     3.1369810579
O       -0.4255287827     -1.3844870505     4.1516827806
O       -0.2353619956     0.3658393641     2.2333596755
6
# Point 6 Energy = 0.0656384800000751
N       0.6960009980     1.1195576940     2.5188924977
O       0.2792953333     1.9980918539     1.8096699338
O       1.6290570448     0.9600656076     3.2577538695
N       -0.0206909622     -0.9866178235     3.1388314204
O       -0.4157340565     -1.3948983141     4.1439418885
O       -0.2229372273     0.3987900921     2.2312102800

    This sampling was finished on:   2020-07-13 14:55:17
=------------------------------------------------------------------------------=
Sampling finished.
=------------------------------------------------------------------------------=