6
# Point -4 Energy = 0.07697374999997919
N       0.7562437284     1.1486973727     2.5518864674
O       0.3594211029     2.2182480709     1.8289700891
O       1.5526864735     0.9906940489     3.1591919500
N       0.0333130138     -1.1450438499     3.1405997229
O       -0.4692372011     -1.3189773399     4.1676597372
O       -0.2874359873     0.2013708072     2.2519919235
6
# Point -3 Energy = 0.040651729999979125
N       0.7390856470     1.1642421775     2.5331286296
O       0.3653530679     2.2095585437     1.8366730170
O       1.5657373708     0.9901824737     3.1672828447
N       0.0334070478     -1.1473010758     3.1404390490
O       -0.4715271064     -1.3213338088     4.1696429451
O       -0.2870648971     0.1996407997     2.2531334047
6
# Point -2 Energy = 0.01719967999997607
N       0.7219437705     1.1797251476     2.5145111408
O       0.3707563365     2.2002885470     1.8443336296
O       1.5784302256     0.9887734050     3.1756115984
N       0.0337776708     -1.1490535452     3.1401457976
O       -0.4736058920     -1.3232542444     4.1714482545
O       -0.2863109813     0.1985097999     2.2542494689
6
# Point -1 Energy = 0.004155459999992672
N       0.7048294897     1.1951485449     2.4960387512
O       0.3756232324     2.1904397653     1.8519457479
O       1.5907601690     0.9864667377     3.1841788596
N       0.0344265321     -1.1503016234     3.1397210259
O       -0.4754703515     -1.3247378808     4.1730774589
O       -0.2851779415     0.1979735663     2.2553380466
6
# Point 0 Energy = 0
N       0.6877539257     1.2105143434     2.4777162057
O       0.3799464281     2.1800146099     1.8595030004
O       1.6027221962     0.9832628380     3.1929848041
N       0.0353553176     -1.1510459660     3.1391660238
O       -0.4771174168     -1.3257843361     4.1745324610
O       -0.2836693207     0.1980276207     2.2563973950
6
# Point 1 Energy = 0.004069130000004861
N       0.6707279448     1.2258242228     2.4595482160
O       0.3837189556     2.1690161919     1.8669988342
O       1.6143111636     0.9791625430     3.2020291827
N       0.0365657352     -1.1512875111     3.1384822929
O       -0.4785441329     -1.3263936054     4.1758152726
O       -0.2817885361     0.1986672686     2.2574260916
6
# Point 2 Energy = 0.016464259999963815
N       0.6537621652     1.2410795671     2.4415394449
O       0.3869342146     2.1574482937     1.8744265242
O       1.6255217947     0.9741671586     3.2113113550
N       0.0380595044     -1.1510274714     3.1376715298
O       -0.4797476420     -1.3265660533     4.1769280114
O       -0.2795389069     0.1998876152     2.2584230247
6
# Point 3 Energy = 0.038126040000065586
N       0.6368669587     1.2562814684     2.4236944978
O       0.3895859786     2.1453153404     1.8817791827
O       1.6363486926     0.9682784572     3.2208303154
N       0.0398383489     -1.1502673257     3.1367356131
O       -0.4807251714     -1.3263024086     4.1778728977
O       -0.2769236774     0.2016835782     2.2593873835
6
# Point 4 Energy = 0.07078035000000682
N       0.6200524496     1.2714307322     2.4060179174
O       0.3916684002     2.1326223724     1.8890497671
O       1.6467863536     0.9614986755     3.2305847155
N       0.0419039902     -1.1490088110     3.1356765916
O       -0.4814740249     -1.3256037586     4.1786522502
O       -0.2739460386     0.2040498994     2.2603186480

    This sampling was finished on:   2020-07-13 14:55:17
=------------------------------------------------------------------------------=
Sampling finished.
=------------------------------------------------------------------------------=