6
# Point 0 Energy = 0
N       0.6877539257     1.2105143434     2.4777162057
O       0.3799464281     2.1800146099     1.8595030004
O       1.6027221962     0.9832628380     3.1929848041
N       0.0353553176     -1.1510459660     3.1391660238
O       -0.4771174168     -1.3257843361     4.1745324610
O       -0.2836693207     0.1980276207     2.2563973950
6
# Point 1 Energy = 9.826000007251423e-05
N       0.6964630371     1.2205199339     2.4699484607
O       0.3694787130     2.1817818596     1.8487234198
O       1.6326873994     1.0029299903     3.1602802001
N       0.0660311334     -1.1324749122     3.1813398927
O       -0.5392646980     -1.3826499453     4.1489011931
O       -0.2804044548     0.2048821837     2.2911067236
6
# Point 2 Energy = 0.000347729999987223
N       0.7045970756     1.2298051394     2.4624387945
O       0.3618937906     2.1817017880     1.8352936611
O       1.6594409777     1.0213277635     3.1296941107
N       0.0905333983     -1.1102254424     3.2287870030
O       -0.5929330598     -1.4410837729     4.1167914099
O       -0.2785410524     0.2134636342     2.3272949108
6
# Point 3 Energy = 0.0006813900000679496
N       0.7120017815     1.2380563447     2.4553117628
O       0.3571211823     2.1797511794     1.8195961126
O       1.6828759491     1.0376024273     3.1015632064
N       0.1083779426     -1.0845960659     3.2805577512
O       -0.6369610988     -1.4996991676     4.0788713420
O       -0.2784246266     0.2238743921     2.3643997150
6
# Point 4 Energy = 0.0010441100000662118
N       0.7185474578     1.2449984756     2.4486803597
O       0.3550727130     2.1759374728     1.8020719133
O       1.7029548209     1.0509948538     3.0761547326
N       0.1191598396     -1.0559214160     3.3355901840
O       -0.6703587489     -1.5572004874     4.0359651918
O       -0.2803849523     0.2361802111     2.4018375086
6
# Point 5 Energy = 0.0013773799999512448
N       0.7241294048     1.2503990829     2.4426447871
O       0.3556440030     2.1703148885     1.7832229125
O       1.7196987558     1.0608385049     3.0536503559
N       0.1225698289     -1.0245912255     3.3927248227
O       -0.6923310504     -1.6123789110     3.9890365319
O       -0.2847198120     0.2504067702     2.4390204799
6
# Point 6 Energy = 0.001647049999974115
N       0.7286669456     1.2540714939     2.4372910150
O       0.3587095728     2.1629984112     1.7636091979
O       1.7331762731     1.0665573823     3.0341317137
N       0.1184213290     -0.9910683142     3.4507279545
O       -0.7023083411     -1.6641055249     3.9391633979
O       -0.2916746493     0.2665356615     2.4753766110
6
# Point 7 Energy = 0.0018379600000457685
N       0.7321016042     1.2558770420     2.4326888310
O       0.3641146067     2.1541727074     1.7438388787
O       1.7434913926     1.0676663428     3.0175706816
N       0.1066823907     -0.9559010263     3.5083260769
O       -0.6999787898     -1.7113262018     3.8875041418
O       -0.3014200743     0.2845002457     2.5103712800
6
# Point 8 Energy = 0.0019392699999798424
N       0.7343951555     1.2557263064     2.4288893342
O       0.3716674223     2.1440936446     1.7245486116
O       1.7507714768     1.0637751816     3.0038269740
N       0.0875044929     -0.9197260663     3.5642511027
O       -0.6853169468     -1.7530622055     3.8352554610
O       -0.3140304707     0.3041822492     2.5435284066
6
# Point 9 Energy = 0.0019411199999694873
N       0.7355282936     1.2535793306     2.4259221408
O       0.3811366691     2.1330814708     1.7063762066
O       1.7551556118     1.0545965490     2.9926542955
N       0.0612395053     -0.8832593645     3.6172919078
O       -0.6586012366     -1.7884190706     3.7836068907
O       -0.3294677131     0.3254101947     2.5744484486
6
# Point 10 Energy = 0.0018441400000028807
N       0.7355004671     1.2494449154     2.4237928320
O       0.3922558755     2.1215066834     1.6899296209
O       1.7567849644     1.0399563730     2.9837141450
N       0.0284383654     -0.8472753216     3.6663443733
O       -0.6204148598     -1.8166041653     3.7336982575
O       -0.3475736825     0.3479606249     2.6028206612
6
# Point 11 Energy = 0.0016488200000708275
N       0.7343310412     1.2433792409     2.4224812467
O       0.4047354312     2.1097714844     1.6757584040
O       1.7557968401     1.0198044618     2.9765943130
N       -0.0101702180     -0.8125776499     3.7104509819
O       -0.5716282840     -1.8369510232     3.6865869309
O       -0.3680736803     0.3715625959     2.6284280135
6
# Point 12 Energy = 0.0013742799999931776
N       0.7320614847     1.2354841574     2.4219410508
O       0.4182793954     2.0982906300     1.6643332493
O       1.7523239080     0.9942227952     2.9708280093
N       -0.0537170910     -0.7799668513     3.7488231714
O       -0.5133661050     -1.8489468565     3.6432296436
O       -0.3905904620     0.3959052351     2.6511447656
6
# Point 13 Energy = 0.0010407599999666672
N       0.7287579365     1.2259054382     2.4221006726
O       0.4326028049     2.0874749900     1.6560368142
O       1.7464992490     0.9634297353     2.9659099008
N       -0.1012378888     -0.7502093371     3.7808442928
O       -0.4469646423     -1.8522592761     3.6044798841
O       -0.4146663292     0.4206475596     2.6709283255
6
# Point 14 Energy = 0.000688579999916783
N       0.7245133932     1.2148311037     2.4228653370
O       0.4474450967     2.0777194859     1.6511655323
O       1.7384667756     0.9277796350     2.9613069244
N       -0.1517169159     -0.7240114384     3.8060561927
O       -0.3739278300     -1.8467591234     3.5710978855
O       -0.4397893894     0.4454294470     2.6878080181
6
# Point 15 Energy = 0.0003774099999986902
N       0.7194488798     1.2024896894     2.4241197284
O       0.4625766458     2.0693950795     1.6499392006
O       1.7283955555     0.8877585028     2.9564638241
N       -0.2041222922     -0.7019990285     3.8241361263
O       -0.2958876174     -1.8325378470     3.5437675017
O       -0.4654200413     0.4698827138     2.7018735089
6
# Point 16 Energy = 0.00016757999998162632
N       0.7137131938     1.1891481058     2.4257308044
O       0.4777974529     2.0628429446     1.6525135766
O       1.7164959043     0.8439770184     2.9508051863
N       -0.2574285871     -0.6847013151     3.8348719931
O       -0.2145721478     -1.8099192191     3.5231133448
O       -0.4910146860     0.4936415753     2.7132649848
6
# Point 17 Energy = 0.00012047000001302877
N       0.7074810376     1.1751085952     2.4275504469
O       0.4929289036     2.0583683346     1.6589911426
O       1.7030348429     0.7971621279     2.9437368852
N       -0.3106269064     -0.6725362826     3.8381430600
O       -0.1317817219     -1.7794658245     3.5097121691
O       -0.5160450257     0.5163521594     2.7221661862
6
# Point 18 Energy = 0.0003194200000393721
N       0.7009494960     1.1607042209     2.4294178683
O       0.5078008216     2.0562319575     1.6694261236
O       1.6883484901     0.7481477817     2.9346502519
N       -0.3627252631     -0.6657954272     3.8339113511
O       -0.0493698751     -1.7419805014     3.5040939050
O       -0.5400125393     0.5376810785     2.7288003901
6
# Point 19 Energy = 0.0008537100000580722
N       0.6943328793     1.1462923424     2.4311619241
O       0.5222367587     2.0566376712     1.6838212406
O       1.6728490104     0.6978643801     2.9229320883
N       -0.4127437823     -0.6646265890     3.8222265486
O       0.0307748228     -1.6985019479     3.5067294013
O       -0.5624585588     0.5573232530     2.7334286870
6
# Point 20 Energy = 0.0017919700000561534
N       0.6878559843     1.1322456270     2.4326036628
O       0.5360407731     2.0597167443     1.7021152934
O       1.6570237878     0.6473253898     2.9079829670
N       -0.4597100591     -0.6690155003     3.8032449098
O       0.1067514030     -1.6502923703     3.5180036484
O       -0.5829707590     0.5750092195     2.7363494086
6
# Point 21 Energy = 0.0031758299999751216
N       0.6817458752     1.1189403448     2.4335595660
O       0.5489889632     2.0655105491     1.7241624697
O       1.6414246623     0.5976086719     2.8892450529
N       -0.5026600151     -0.6787687531     3.7772602719
O       0.1766785809     -1.5988137847     3.5381751983
O       -0.6011869363     0.5905120818     2.7378973313
6
# Point 22 Energy = 0.004980160000002343
N       0.6762224138     1.1067420344     2.4338459606
O       0.5608286689     2.0739550975     1.7497063815
O       1.6266456129     0.5498295936     2.8662388681
N       -0.5406488815     -0.6935027933     3.7447424903
O       0.2387401404     -1.5456889361     3.5673249280
O       -0.6167968244     0.6036541139     2.7384412615
6
# Point 23 Energy = 0.007032550000019455
N       0.6714879611     1.0959890919     2.4332850192
O       0.5712872950     2.0848718632     1.7783541216
O       1.6132885375     0.5051033742     2.8386059950
N       -0.5727752587     -0.7126446615     3.7063757021
O       0.2912450992     -1.4926434003     3.6053002389
O       -0.6295425039     0.6143128424     2.7383788132
6
# Point 24 Energy = 0.008988789999989422
N       0.6677169190     1.0869754141     2.4317125467
O       0.5800909202     2.0979693298     1.8095576012
O       1.6019189363     0.4644956924     2.8061520447
N       -0.5982183523     -0.7354497553     3.6630862883
O       0.3327005117     -1.4414278393     3.6516637491
O       -0.6392178049     0.6224262682     2.7381276601
6
# Point 25 Energy = 0.010501910000073167
N       0.6650460009     1.0799337602     2.4289873700
O       0.5869903339     2.1128581689     1.8426101294
O       1.5930161423     0.4289634593     2.7688821107
N       -0.6162846799     -0.7610393405     3.6160495544
O       0.3618903533     -1.3937236924     3.7056574555
O       -0.6456670203     0.6279967544     2.7381132700
6
# Point 26 Energy = 0.011247019999984786
N       0.6635662248     1.0750218264     2.4250016372
O       0.5917894877     2.1290798698     1.8766645778
O       1.5869254697     0.3992913648     2.7270205085
N       -0.6264567031     -0.7884559692     3.5666663217
O       0.3779499231     -1.3510410355     3.7661928438
O       -0.6487832722     0.6310930536     2.7387540011
6
# Point 27 Energy = 0.011060489999920264
N       0.6633175461     1.0723129464     2.4196907986
O       0.5943696628     2.1461447849     1.9107751263
O       1.5838210608     0.3760331311     2.6810087062
N       -0.6284334803     -0.8167296107     3.5165063728
O       0.3804232831     -1.3146221300     3.8318736681
O       -0.6485069422     0.6318499882     2.7404452181
6
# Point 28 Energy = 0.009976009999945745
N       0.6642867645     1.0717927722     2.4130417049
O       0.5947029924     2.1635723890     1.9439583896
O       1.5836872203     0.3594677718     2.6314799024
N       -0.6221540173     -0.8449432342     3.4672238983
O       0.3692927979     -1.2853660585     3.9010515244
O       -0.6448246277     0.6304654696     2.7435444704
6
# Point 29 Energy = 0.008235990000002857
N       0.6664089141     1.0733623399     2.4050972865
O       0.5928516563     2.1809255916     1.9752638737
O       1.5863224487     0.3495794237     2.5792142866
N       -0.6077978585     -0.8722858226     3.4204579264
O       0.3449749802     -1.2637872682     3.9719069237
O       -0.6377690106     0.6271948456     2.7483595929
6
# Point 30 Energy = 0.006185860000073262
N       0.6695718844     1.0768468638     2.3959567743
O       0.5889532074     2.1978327784     2.0038407229
O       1.5913652477     0.3460646539     2.5250834859
N       -0.5857633940     -0.8980839952     3.3777349272
O       0.3082840006     -1.2500141531     4.0425430807
O       -0.6274198161     0.6223429622     2.7551408991
6
# Point 31 Energy = 0.004177860000027067
N       0.6736236369     1.0820087474     2.3857712370
O       0.5831964182     2.2139951065     2.0289889640
O       1.5983359853     0.3483651687     2.4699942903
N       -0.5566299892     -0.9218092998     3.3403895639
O       0.2603708102     -1.2438253110     4.1110781152
O       -0.6139057314     0.6162546981     2.7640777196
6
# Point 32 Energy = 0.0025210600000491468
N       0.6783811540     1.0885628753     2.3747350953
O       0.5757941919     2.2291807195     2.0501882757
O       1.6066863399     0.3557188132     2.4148401208
N       -0.5211132421     -0.9430643444     3.3095136437
O       0.2026495674     -1.2447139071     4.1757240095
O       -0.5974068810     0.6093049534     2.7752987450
6
# Point 33 Energy = 0.0013074299999402683
N       0.6836402109     1.0961923148     2.3630749146
O       0.5669599178     2.2432103738     2.0671035121
O       1.6158477515     0.3672193112     2.3604649761
N       -0.4800226230     -0.9615550417     3.2859354273
O       0.1367231571     -1.2519668910     4.2348458874
O       -0.5781572843     0.6018890428     2.7888751725
6
# Point 34 Energy = 0.0005275000000324326
N       0.6891851602     1.1045629675     2.3510370347
O       0.5568917186     2.2559398193     2.0795714198
O       1.6252722996     0.3818756482     2.3076405324
N       -0.4342281647     -0.9770574580     3.2702246142
O       0.0643167954     -1.2647460347     4.2870007284
O       -0.5564466791     0.5944141675     2.8048255605
6
# Point 35 Energy = 0.00012299999991682853
N       0.6947981101     1.1133362889     2.3388754698
O       0.5457664434     2.2672434900     2.0875758017
O       1.6344623090     0.3986644752     2.2570540632
N       -0.3846392156     -0.9893866282     3.2627143596
O       -0.0127753978     -1.2821607180     4.3309587577
O       -0.5326211191     0.5872922020     2.8231214380
6
# Point 36 Energy = 2.1149999952285725e-05
N       0.7002670925     1.1221797497     2.3268411489
O       0.5337429656     2.2770024978     2.0912187280
O       1.6429876534     0.4165720828     2.2093034312
N       -0.3321948806     -0.9983724502     3.2635308213
O       -0.0927299321     -1.3033263239     4.3657128091
O       -0.5070817687     0.5809335537     2.8436929516

    This sampling was finished on:   2020-07-13 14:55:17
=------------------------------------------------------------------------------=
Sampling finished.
=------------------------------------------------------------------------------=