6
# Point -8 Energy = 0.05216724000007389
N       0.7051573905     1.3039680871     2.4231548915
O       0.6222532151     2.2302333206     1.7091893032
O       1.4707597035     1.0300229656     3.2728681415
N       -0.2176750484     -0.9511402605     3.2762672759
O       -0.2352322511     -1.6902965142     4.1873172653
O       -0.4002718795     0.1722015114     2.2315030126
6
# Point -7 Energy = 0.04056274999999232
N       0.7033202499     1.2968041278     2.4280992272
O       0.5920431751     2.2313165113     1.7251434380
O       1.4900106726     1.0252246368     3.2603845480
N       -0.1837496486     -0.9754184251     3.2553655641
O       -0.2730039954     -1.6616728547     4.2020925743
O       -0.3836293235     0.1787351139     2.2292145385
6
# Point -6 Energy = 0.029998080000041227
N       0.7013581357     1.2883369340     2.4337048944
O       0.5615818860     2.2302553282     1.7420685972
O       1.5087486026     1.0201514786     3.2483616252
N       -0.1499990933     -1.0000597085     3.2354257106
O       -0.3093459795     -1.6278333641     4.2122800038
O       -0.3673524213     0.1841384416     2.2284590588
6
# Point -5 Energy = 0.02086568999999372
N       0.6992506396     1.2785886800     2.4399736765
O       0.5309596028     2.2270488258     1.7599107819
O       1.5268860785     1.0147827431     3.2368603301
N       -0.1166387032     -1.0249779445     3.2165259066
O       -0.3439480401     -1.5889240350     4.2178068611
O       -0.3515184476     0.1884708405     2.2292223338
6
# Point -4 Energy = 0.013329690000034589
N       0.6969773814     1.2675917582     2.4469025743
O       0.5002659629     2.2217133572     1.7786015080
O       1.5443392189     1.0091042912     3.2259404766
N       -0.0838805241     -1.0500879520     3.1987560613
O       -0.3765135495     -1.5451274627     4.2186107720
O       -0.3361973595     0.1917951181     2.2314884977
6
# Point -3 Energy = 0.007570939999936854
N       0.6904463476     1.2587583788     2.4605785690
O       0.4667099433     2.2146188661     1.7991672207
O       1.5667785603     1.0024884956     3.2089863582
N       -0.0491266772     -1.0749651639     3.1853274071
O       -0.4134893685     -1.4965279035     4.2140267694
O       -0.3163276754     0.1906164369     2.2322135655
6
# Point -2 Energy = 0.0032857299999591305
N       0.6935384733     1.2406129098     2.4600250391
O       0.4402011375     2.2046544763     1.8176337965
O       1.5742550854     0.9971250596     3.2091501600
N       -0.0221770978     -1.1007386606     3.1656113439
O       -0.4313908570     -1.4437491773     4.2062654445
O       -0.3094356113     0.1970845021     2.2416141060
6
# Point -1 Energy = 0.0008161100000734223
N       0.6907972007     1.2260472273     2.4685326188
O       0.4099593706     2.1932721343     1.8383388380
O       1.5889231873     0.9903588114     3.2007196192
N       0.0072829277     -1.1259720294     3.1515611673
O       -0.4557518642     -1.3866472278     4.1928373540
O       -0.2962196920     0.1979301942     2.2483102927
6
# Point 0 Energy = 0
N       0.6877539257     1.2105143434     2.4777162057
O       0.3799464281     2.1800146099     1.8595030004
O       1.6027221962     0.9832628380     3.1929848041
N       0.0353553176     -1.1510459660     3.1391660238
O       -0.4771174168     -1.3257843361     4.1745324610
O       -0.2836693207     0.1980276207     2.2563973950
6
# Point 1 Energy = 0.0007887699999855613
N       0.6844231590     1.1940722928     2.4875064875
O       0.3502620683     2.1649826650     1.8809845070
O       1.6155682101     0.9758608616     3.1860162477
N       0.0618264087     -1.1758665202     3.1285703773
O       -0.4952159272     -1.2615659033     4.1513324624
O       -0.2718727888     0.1975057140     2.2658898081
6
# Point 2 Energy = 0.003055159999917123
N       0.6807998607     1.1768077265     2.4978591376
O       0.3209897639     2.1482998684     1.9026407348
O       1.6274165054     0.9681744463     3.1798399377
N       0.0864951077     -1.2003337873     3.1199415144
O       -0.5098199593     -1.1944454570     4.1232334228
O       -0.2608901483     0.1964863130     2.2767851427
6
# Point 3 Energy = 0.006722599999989143
N       0.6768757270     1.1588228620     2.5087319772
O       0.2922075307     2.1301105657     1.9243249495
O       1.6382400751     0.9602275328     3.1744604231
N       0.1091636592     -1.2243412165     3.1134577336
O       -0.5207229242     -1.1249300419     4.0902485165
O       -0.2507729377     0.1950994077     2.2890762901
6
# Point 4 Energy = 0.011914839999917604
N       0.6726426011     1.1402332643     2.5200806935
O       0.2639899573     2.1105795619     1.9458874593
O       1.6480259070     0.9520476606     3.1698639281
N       0.1296364307     -1.2477739637     3.1093038513
O       -0.5277362821     -1.0535844029     4.0524110435
O       -0.2415674840     0.1934869897     2.3027529142
6
# Point 5 Energy = 0.01914834000007204
N       0.6680938682     1.1211673722     2.5318574835
O       0.2364087739     2.0898919802     1.9671777298
O       1.6567740232     0.9436666771     3.1660184644
N       0.1477204604     -1.2705069110     3.1076670948
O       -0.5306907482     -0.9810350024     4.0097781729
O       -0.2333152474     0.1918049939     2.3178009446
6
# Point 6 Energy = 0.029522079999992457
N       0.6632253511     1.1017664845     2.5440105136
O       0.2095329308     2.0682530244     1.9880470122
O       1.6644972732     0.9351213245     3.1628732547
N       0.1632271098     -1.2924024741     3.1087323611
O       -0.5294395141     -0.9079738420     3.9624354805
O       -0.2260520208     0.1902245926     2.3342012679
6
# Point 7 Energy = 0.04458047000002807
N       0.6580360980     1.0821848419     2.5564836941
O       0.1834284079     2.0458875346     2.0083514149
O       1.6712213876     0.9264537736     3.1603580807
N       0.1759748259     -1.3133083263     3.1126764601
O       -0.5238632013     -0.8351617857     3.9105023411
O       -0.2198063880     0.1889330719     2.3519278991
6
# Point 8 Energy = 0.06637877000002845
N       0.6525292078     1.0625896283     2.5692166239
O       0.1581578193     2.0230392537     2.0279554246
O       1.6769851065     0.9177120985     3.1583828418
N       0.1857931603     -1.3330552463     3.1196610890
O       -0.5138766286     -0.7634308728     3.8541382040
O       -0.2145975352     0.1881342485     2.3709457067

    This sampling was finished on:   2020-07-13 14:55:17
=------------------------------------------------------------------------------=
Sampling finished.
=------------------------------------------------------------------------------=