6
# Point -5 Energy = 0.05487572999999202
N       0.6169435112     1.1195801669     2.4700896792
O       0.3718181665     2.2814738079     1.8072487160
O       1.6908838974     0.9844329250     3.2536312868
N       0.0291083429     -1.1476940691     3.1410825078
O       -0.4722502731     -1.3267228193     4.1691913800
O       -0.2915125147     0.1839190984     2.2590563201
6
# Point -4 Energy = 0.03756765999997924
N       0.6316159174     1.1381605887     2.4717081342
O       0.3717330190     2.2613593128     1.8165684577
O       1.6736378413     0.9821604260     3.2428372373
N       0.0305864748     -1.1478946674     3.1405536416
O       -0.4729674542     -1.3261228943     4.1701238630
O       -0.2896146682     0.1873263441     2.2585085563
6
# Point -3 Energy = 0.022639760000004117
N       0.6460324606     1.1565570424     2.4733023247
O       0.3725005109     2.2411298515     1.8264736279
O       1.6561908067     0.9809107807     3.2313386594
N       0.0319618637     -1.1483225320     3.1401064142
O       -0.4738329335     -1.3257256446     4.1711168854
O       -0.2878615783     0.1904396119     2.2579619784
6
# Point -2 Energy = 0.010801120000053288
N       0.6601969103     1.1747537402     2.4748437513
O       0.3741266798     2.2208113718     1.8369432895
O       1.6385448032     0.9806806608     3.2191793289
N       0.0332196532     -1.1489859605     3.1397280330
O       -0.4748185082     -1.3255339906     4.1721794957
O       -0.2862784081     0.1932632881     2.2574259915
6
# Point -1 Energy = 0.002907409999977517
N       0.6741058264     1.1927417910     2.4763183853
O       0.3766099747     2.2004305707     1.8479590456
O       1.6207155188     0.9814662321     3.2063869195
N       0.0343525022     -1.1498917040     3.1394148993
O       -0.4759147449     -1.3255520852     4.1733167223
O       -0.2848779471     0.1957943053     2.2569039180
6
# Point 0 Energy = 0
N       0.6877539257     1.2105143434     2.4777162057
O       0.3799464281     2.1800146099     1.8595030004
O       1.6027221962     0.9832628380     3.1929848041
N       0.0353553176     -1.1510459660     3.1391660238
O       -0.4771174168     -1.3257843361     4.1745324610
O       -0.2836693207     0.1980276207     2.2563973950
6
# Point 1 Energy = 0.003378490000045531
N       0.7011352970     1.2280654824     2.4790288314
O       0.3841308727     2.1595910377     1.8715572737
O       1.5845852886     0.9860649241     3.1789947573
N       0.0362240437     -1.1524546320     3.1389815059
O       -0.4784243808     -1.3262351866     4.1758301283
O       -0.2826599911     0.1999574844     2.2559073935
6
# Point 2 Energy = 0.01459305000008726
N       0.7142438245     1.2453898482     2.4802487195
O       0.3891573788     2.1391877521     1.8841038249
O       1.5663256315     0.9898660148     3.1644378856
N       0.0369552384     -1.1541233508     3.1388619995
O       -0.4798344908     -1.3269090422     4.1772128816
O       -0.2818564524     0.2015778878     2.2554345790
6
# Point 3 Energy = 0.03555353999996669
N       0.7270733733     1.2624824711     2.4813688380
O       0.3950194526     2.1188329774     1.8971243738
O       1.5479640775     0.9946587062     3.1493350184
N       0.0375458862     -1.1560575685     3.1388084785
O       -0.4813471320     -1.3278102406     4.1786837084
O       -0.2812645275     0.2028827643     2.2549794730
6
# Point 4 Energy = 0.06859754000004159
N       0.7396178857     1.2793386885     2.4823825203
O       0.4017101390     2.0985552448     1.9106003583
O       1.5295213116     1.0004346677     3.1337068910
N       0.0379933023     -1.1582625458     3.1388221181
O       -0.4829619959     -1.3289430382     4.1802454657
O       -0.2808895127     0.2038660929     2.2545425366

    This sampling was finished on:   2020-07-13 14:55:17
=------------------------------------------------------------------------------=
Sampling finished.
=------------------------------------------------------------------------------=