6
# Point -7 Energy = 0.06386489000004758
N       0.8449420579     1.3871165523     2.5126574331
O       0.2620869195     2.1560651469     1.8036102776
O       1.6209915334     0.8562788019     3.2661254779
N       0.0537997540     -1.1808743464     3.1384196490
O       -0.4676100732     -1.2903886737     4.1825432800
O       -0.3692190615     0.1667916290     2.1969437724
6
# Point -6 Energy = 0.04971444000000247
N       0.8225378004     1.3615410296     2.5067783057
O       0.2765159950     2.1643589801     1.8077253608
O       1.6219796848     0.8727767796     3.2593521928
N       0.0503482012     -1.1779310454     3.1385830409
O       -0.4691026530     -1.2965686770     4.1820757346
O       -0.3572878983     0.1708120430     2.2057852551
6
# Point -5 Energy = 0.03656173000007357
N       0.8000648309     1.3360589240     2.5011845207
O       0.2918380218     2.1710614466     1.8131500712
O       1.6217976144     0.8899124106     3.2513193938
N       0.0471422010     -1.1745767652     3.1387314530
O       -0.4705591864     -1.3024049853     4.1813973713
O       -0.3452923517     0.1749380794     2.2145170800
6
# Point -4 Energy = 0.02477376000001641
N       0.7775623263     1.3106773378     2.4958703992
O       0.3080044873     2.1761497369     1.8198720842
O       1.6204128917     0.9076343408     3.2420610352
N       0.0441928137     -1.1707954733     3.1388546645
O       -0.4719595119     -1.3078783499     4.1805017107
O       -0.3332218770     0.1792015176     2.2231399961
6
# Point -3 Energy = 0.01474630000001298
N       0.7550628357     1.2854081300     2.4908391415
O       0.3249631916     2.1796038745     1.8278785682
O       1.6178048379     0.9258883931     3.2316017517
N       0.0415140102     -1.1665704389     3.1389480520
O       -0.4732939280     -1.3129700056     4.1793809243
O       -0.3210598173     0.1836291567     2.2316514523
6
# Point -2 Energy = 0.006949150000025384
N       0.7325925859     1.2602678344     2.4861029933
O       0.3426571662     2.1814070657     1.8371568655
O       1.6139649530     0.9446180612     3.2199561996
N       0.0391236540     -1.1618842722     3.1390132369
O       -0.4745646405     -1.3176618444     4.1780252604
O       -0.3087825885     0.1882422652     2.2400453343
6
# Point -1 Energy = 0.0018536900000185597
N       0.7101664308     1.2352820435     2.4816925204
O       0.3610197346     2.1815462751     1.8476968119
O       1.6089062938     0.9637643354     3.2071174424
N       0.0370486866     -1.1567180855     3.1390643587
O       -0.4757979392     -1.3219370952     4.1764204221
O       -0.2963520765     0.1930516366     2.2483083346
6
# Point 0 Energy = 0
N       0.6877539257     1.2105143434     2.4777162057
O       0.3799464281     2.1800146099     1.8595030004
O       1.6027221962     0.9832628380     3.1929848041
N       0.0353553176     -1.1510459660     3.1391660238
O       -0.4771174168     -1.3257843361     4.1745324610
O       -0.2836693207     0.1980276207     2.2563973950
6
# Point 1 Energy = 0.0032521900000119786
N       0.6497552240     1.1991297746     2.5008041842
O       0.3879091185     2.1773674405     1.8772189533
O       1.6209843226     1.0017059606     3.1464954649
N       0.0467525963     -1.1424506847     3.1553778110
O       -0.5095835390     -1.3310995174     4.1659461435
O       -0.2508265924     0.1903361363     2.2544573330
6
# Point 2 Energy = 0.009094720000064171
N       0.6405098127     1.1638992577     2.4757880262
O       0.4173171095     2.1720056716     1.8876855127
O       1.5920248303     1.0224829480     3.1547221645
N       0.0352314786     -1.1375555732     3.1428144226
O       -0.4862395193     -1.3320859235     4.1689553073
O       -0.2538525817     0.2062427293     2.2703344567
6
# Point 3 Energy = 0.021810490000063965
N       0.6192108909     1.1391206728     2.4717160230
O       0.4380976648     2.1654482162     1.9030263957
O       1.5812244830     1.0427189807     3.1383087490
N       0.0341454649     -1.1303746021     3.1423705473
O       -0.4864366234     -1.3343776631     4.1665027664
O       -0.2412507502     0.2124535054     2.2783754087
6
# Point 4 Energy = 0.041332839999995485
N       0.5981511716     1.1145042216     2.4678629927
O       0.4593450106     2.1571834176     1.9194898231
O       1.5690489495     1.0630756320     3.1210238442
N       0.0333612814     -1.1226498229     3.1418105682
O       -0.4863993031     -1.3361571139     4.1638010342
O       -0.2285159799     0.2190327755     2.2863116275
6
# Point 5 Energy = 0.06722023999998328
N       0.5773502394     1.0900656925     2.4642359328
O       0.4810044796     2.1472103510     1.9370481429
O       1.5555048128     1.0834902562     3.1029008988
N       0.0328881110     -1.1143674002     3.1411316140
O       -0.4861229422     -1.3374092841     4.1608436108
O       -0.2156335705     0.2259994945     2.2941396908

    This sampling was finished on:   2020-07-13 14:55:17
=------------------------------------------------------------------------------=
Sampling finished.
=------------------------------------------------------------------------------=