11
# Point -4 Energy = 0.05293690000000595
C       1.2488400122     0.0000026118     0.2574843513
C       -0.0000016836     0.0000007741     -0.6391348668
H       1.3290429391     -0.9708087009     0.7436052192
H       1.3290322945     0.9708130665     0.7436076780
H       2.2154002869     -0.0000094891     -0.2621427739
C       -1.2488438322     -0.0000018646     0.2574805897
H       0.0000013843     -1.0237111029     -0.9924703128
H       0.0000012681     1.0237123806     -0.9924712377
H       -1.3290331070     -0.9708037598     0.7436223304
H       -2.2153978011     0.0000064841     -0.2621570227
H       -1.3290418219     0.9708002663     0.7436210641
11
# Point -3 Energy = 0.03002066000000525
C       1.2551697578     0.0000020228     0.2582930040
C       -0.0000012749     0.0000005975     -0.6236600832
H       1.3241280211     -0.9509294034     0.7854851566
H       1.3241200220     0.9509325835     0.7854870643
H       2.2043717125     -0.0000071179     -0.2889506488
C       -1.2551725278     -0.0000014393     0.2582903086
H       0.0000011154     -0.9946972487     -1.0579664049
H       0.0000009571     0.9946981868     -1.0579670793
H       -1.3241208261     -0.9509250024     0.7854978108
H       -2.2043696180     0.0000050189     -0.2889608984
H       -1.3241273997     0.9509224682     0.7854967893
11
# Point -2 Energy = 0.013463750000013874
C       1.2604854221     0.0000013919     0.2588915208
C       -0.0000008556     0.0000004094     -0.6095876630
H       1.3188283320     -0.9292537788     0.8261448695
H       1.3188229911     0.9292558352     0.8261461766
H       2.1922036995     -0.0000047439     -0.3143238377
C       -1.2604872013     -0.0000009911     0.2588898128
H       0.0000007877     -0.9597758780     -1.1215453461
H       0.0000006350     0.9597764920     -1.1215457790
H       -1.3188236557     -0.9292503891     0.8261531880
H       -2.1922021553     0.0000035602     -0.3143303863
H       -1.3188280600     0.9292487582     0.8261524632
11
# Point -1 Energy = 0.0033996800000011262
C       1.2645392483     0.0000007179     0.2592892723
C       -0.0000004299     0.0000002102     -0.5973492416
H       1.3126597593     -0.9058180122     0.8655990852
H       1.3126570854     0.9058190079     0.8655997519
H       2.1789225794     -0.0000023702     -0.3380370419
C       -1.2645401034     -0.0000005180     0.2592884653
H       0.0000004113     -0.9193593992     -1.1832554358
H       0.0000002965     0.9193597016     -1.1832556422
H       -1.3126574790     -0.9058160938     0.8656031823
H       -2.1789217377     0.0000021136     -0.3380401776
H       -1.3126596907     0.9058153084     0.8656028010
11
# Point 0 Energy = 0
C       1.2672042126     0.0000000000     0.2594997522
C       0.0000000000     0.0000000000     -0.5872081259
H       1.3052750505     -0.8806643351     0.9038259677
H       1.3052750505     0.8806643351     0.9038259677
H       2.1646165232     0.0000000000     -0.3599948239
C       -1.2672042126     -0.0000000181     0.2594997522
H       0.0000000000     -0.8738729764     -1.2430302913
H       -0.0000000606     0.8738729764     -1.2430302913
H       -1.3052750505     -0.8806643351     0.9038259677
H       -2.1646165232     0.0000006841     -0.3599948239
H       -1.3052750505     0.8806643351     0.9038259677
11
# Point 1 Energy = 0.0034464999999812562
C       1.2684686504     -0.0000007644     0.2595296727
C       0.0000004338     -0.0000002185     -0.5792563250
H       1.2964925783     -0.8538412208     0.9407699571
H       1.2964952636     0.8538402766     0.9407692948
H       2.1494078377     0.0000023648     -0.3802369201
C       -1.2684678629     0.0000005134     0.2595303793
H       -0.0000004073     -0.8237507605     -1.3006798007
H       -0.0000004596     0.8237504650     -1.3006796216
H       -1.2964947575     -0.8538435548     0.9407660188
H       -2.1494088030     -0.0000007289     -0.3802340503
H       -1.2964925339     0.8538442942     0.9407664140
11
# Point 2 Energy = 0.013923379999994268
C       1.2683459196     -0.0000015733     0.2593881540
C       0.0000008720     -0.0000004472     -0.5735280719
H       1.2861718244     -0.8254018990     0.9763657410
H       1.2861772014     0.8254000816     0.9763644212
H       2.1334108957     0.0000047214     -0.3988340496
C       -1.2683444096     0.0000010749     0.2593894609
H       -0.0000008151     -0.7694382398     -1.3559946391
H       -0.0000008794     0.7694376499     -1.3559943075
H       -1.2861760970     -0.8254069822     0.9763580335
H       -2.1334129348     -0.0000021158     -0.3988285639
H       -1.2861716376     0.8254083956     0.9763588403
11
# Point 3 Energy = 0.03165765999999337
C       1.2668411204     -0.0000024268     0.2590903203
C       0.0000013161     -0.0000006856     -0.5700434176
H       1.2741654219     -0.7954034574     1.0105477560
H       1.2741734979     0.7954008426     1.0105458005
H       2.1167193280     0.0000070677     -0.4158508834
C       -1.2668389492     0.0000016678     0.2590921167
H       -0.0000012063     -0.7113976672     -1.4087841416
H       -0.0000013192     0.7113967799     -1.4087836860
H       -1.2741717186     -0.7954116883     1.0105364771
H       -2.1167225364     -0.0000034724     -0.4158430222
H       -1.2741650152     0.7954137057     1.0105376990
11
# Point 4 Energy = 0.056952100000003725
C       1.2639783926     -0.0000033249     0.2586511933
C       0.0000017681     -0.0000009331     -0.5687715507
H       1.2603715836     -0.7639073568     1.0432453666
H       1.2603823678     0.7639040259     1.0432428148
H       2.0994111256     0.0000094016     -0.4313788318
C       -1.2639756174     0.0000022935     0.2586533646
H       -0.0000015643     -0.6501038217     -1.4588460910
H       -0.0000017776     0.6501026304     -1.4588455412
H       -1.2603798517     -0.7639191160     1.0432307444
H       -2.0994155877     -0.0000047949     -0.4313688219
H       -1.2603708996     0.7639216620     1.0432323718

    This sampling was finished on:   2020-07-02 17:54:42
=------------------------------------------------------------------------------=
Sampling finished.
=------------------------------------------------------------------------------=