11
# Point -4 Energy = 0.05293617999998901
C       1.2488394861     0.0000025733     0.2574848705
C       -0.0000016836     0.0000007468     -0.6391349406
H       1.3290424516     -0.9708085597     0.7436060445
H       1.3290317232     0.9708128498     0.7436085209
H       2.2153998535     -0.0000094045     -0.2621415708
C       -1.2488433061     -0.0000018393     0.2574811089
H       0.0000014122     -1.0237083542     -0.9924736897
H       0.0000012401     1.0237095884     -0.9924745675
H       -1.3290325924     -0.9708035469     0.7436231825
H       -2.2153973678     0.0000064908     -0.2621558196
H       -1.3290412775     0.9708001214     0.7436218799
11
# Point -3 Energy = 0.030020289999995953
C       1.2551694091     0.0000019960     0.2582933200
C       -0.0000012749     0.0000005768     -0.6236601714
H       1.3241276937     -0.9509293080     0.7854856742
H       1.3241196343     0.9509324351     0.7854875931
H       2.2043714389     -0.0000070570     -0.2889498788
C       -1.2551721791     -0.0000014224     0.2582906246
H       0.0000011344     -0.9946953111     -1.0579685097
H       0.0000009380     0.9946962186     -1.0579691512
H       -1.3241204803     -0.9509248571     0.7854983463
H       -2.2043693445     0.0000050253     -0.2889601284
H       -1.3241270304     0.9509223698     0.7854973001
11
# Point -2 Energy = 0.013463619999996013
C       1.2604852504     0.0000013765     0.2588916687
C       -0.0000008556     0.0000003964     -0.6095877186
H       1.3188281731     -0.9292537327     0.8261451180
H       1.3188227960     0.9292557585     0.8261464307
H       2.1922035685     -0.0000047074     -0.3143234656
C       -1.2604870296     -0.0000009820     0.2588899608
H       0.0000007984     -0.9597748844     -1.1215463503
H       0.0000006244     0.9597754802     -1.1215467643
H       -1.3188234865     -0.9292503146     0.8261534462
H       -2.1922020243     0.0000035655     -0.3143300143
H       -1.3188278752     0.9292487100     0.8261527076
11
# Point -1 Energy = 0.0033996800000011262
C       1.2645392583     0.0000007140     0.2592892851
C       -0.0000004299     0.0000002060     -0.5973492103
H       1.3126597882     -0.9058180188     0.8655991017
H       1.3126571038     0.9058190069     0.8655997694
H       2.1789225753     -0.0000023599     -0.3380370387
C       -1.2645401134     -0.0000005161     0.2592884782
H       0.0000004139     -0.9193594486     -1.1832555043
H       0.0000002939     0.9193597455     -1.1832557051
H       -1.3126575055     -0.9058160936     0.8656032010
H       -2.1789217336     0.0000021164     -0.3380401743
H       -1.3126597115     0.9058153142     0.8656028162
11
# Point 0 Energy = 0
C       1.2672042126     0.0000000000     0.2594997522
C       0.0000000000     0.0000000000     -0.5872081259
H       1.3052750505     -0.8806643351     0.9038259677
H       1.3052750505     0.8806643351     0.9038259677
H       2.1646165232     0.0000000000     -0.3599948239
C       -1.2672042126     -0.0000000181     0.2594997522
H       0.0000000000     -0.8738729764     -1.2430302913
H       -0.0000000606     0.8738729764     -1.2430302913
H       -1.3052750505     -0.8806643351     0.9038259677
H       -2.1646165232     0.0000006841     -0.3599948239
H       -1.3052750505     0.8806643351     0.9038259677
11
# Point 1 Energy = 0.003446509999989189
C       1.2684686656     -0.0000007602     0.2595296828
C       0.0000004338     -0.0000002136     -0.5792562904
H       1.2964926026     -0.8538412196     0.9407699703
H       1.2964952989     0.8538402846     0.9407693072
H       2.1494078373     0.0000023529     -0.3802369257
C       -1.2684678781     0.0000005114     0.2595303893
H       -0.0000004109     -0.8237508232     -1.3006798461
H       -0.0000004561     0.8237505334     -1.3006796710
H       -1.2964947841     -0.8538435615     0.9407660302
H       -2.1494088026     -0.0000007322     -0.3802340559
H       -1.2964925669     0.8538442941     0.9407664282
11
# Point 2 Energy = 0.013923229999988962
C       1.2683460886     -0.0000015568     0.2593880304
C       0.0000008720     -0.0000004310     -0.5735279816
H       1.2861719907     -0.8254019451     0.9763655200
H       1.2861774055     0.8254001647     0.9763641967
H       2.1334110128     0.0000046785     -0.3988343919
C       -1.2683445786     0.0000010657     0.2593893373
H       -0.0000008299     -0.7694393158     -1.3559937672
H       -0.0000008646     0.7694387443     -1.3559934469
H       -1.2861762728     -0.8254070610     0.9763578060
H       -2.1334130520     -0.0000021236     -0.3988289062
H       -1.2861718323     0.8254084460     0.9763586223
11
# Point 3 Energy = 0.031657209999991665
C       1.2668414560     -0.0000023984     0.2590900916
C       0.0000013161     -0.0000006573     -0.5700432089
H       1.2741657688     -0.7954035556     1.0105473338
H       1.2741739092     0.7954010044     1.0105453733
H       2.1167195496     0.0000069932     -0.4158515452
C       -1.2668392848     0.0000016521     0.2590918881
H       -0.0000012321     -0.7113998308     -1.4087824976
H       -0.0000012934     0.7113989755     -1.4087820590
H       -1.2741720815     -0.7954118421     1.0105360451
H       -2.1167227580     -0.0000034868     -0.4158436841
H       -1.2741654106     0.7954138118     1.0105372818
11
# Point 4 Energy = 0.05695119000000659
C       1.2639789046     -0.0000032847     0.2586508877
C       0.0000017681     -0.0000008917     -0.5687711656
H       1.2603721487     -0.7639075115     1.0432447768
H       1.2603830244     0.7639042703     1.0432422201
H       2.0994114381     0.0000092943     -0.4313797918
C       -1.2639761294     0.0000022717     0.2586530590
H       -0.0000016009     -0.6501071158     -1.4588438229
H       -0.0000017409     0.6501059713     -1.4588432942
H       -1.2603804389     -0.7639193480     1.0432301430
H       -2.0994159001     -0.0000048186     -0.4313697819
H       -1.2603715342     0.7639218288     1.0432317887
