11
# Point -5 Energy = 0.07070206999999584
C       1.1310414486     -0.0000002061     0.2670048217
C       -0.0000000088     0.0000000078     -0.4260007245
H       1.2977796078     -0.8916485402     0.8719392857
H       1.2977788718     0.8916486885     0.8719386874
H       1.8605447248     0.0000001550     -0.5420027530
C       -1.1310413207     0.0000002494     0.2670048975
H       -0.0000010388     -0.8714690242     -1.0853568694
H       0.0000003651     0.8714688739     -1.0853570895
H       -1.2977788548     -0.8916488724     0.8719383583
H       -1.8605442849     0.0000007032     -0.5420029686
H       -1.2977795706     0.8916486311     0.8719393734
11
# Point -4 Energy = 0.04216262999999287
C       1.1590883809     -0.0000001653     0.2653213674
C       -0.0000000063     0.0000000062     -0.4574657534
H       1.3010918406     -0.8899207383     0.8796001532
H       1.3010912533     0.8899208545     0.8795996613
H       1.9254332772     0.0000001255     -0.5091948466
C       -1.1590882746     0.0000001973     0.2653214303
H       -0.0000008244     -0.8719850184     -1.1160707098
H       0.0000002768     0.8719848979     -1.1160708861
H       -1.3010912427     -0.8899210049     0.8795994015
H       -1.9254329335     0.0000006995     -0.5091950270
H       -1.3010918081     0.8899208121     0.8796002280
11
# Point -3 Energy = 0.022142160000015565
C       1.1867337951     -0.0000001242     0.2637062161
C       -0.0000000041     0.0000000045     -0.4893467260
H       1.3034619827     -0.8879703095     0.8866216989
H       1.3034615443     0.8879703948     0.8866213201
H       1.9883933395     0.0000000955     -0.4745305840
C       -1.1867337123     0.0000001443     0.2637062649
H       -0.0000006131     -0.8724833943     -1.1472226000
H       0.0000001900     0.8724833038     -1.1472227324
H       -1.3034615386     -0.8879705103     0.8866211279
H       -1.9883930882     0.0000006955     -0.4745307248
H       -1.3034619560     0.8879703658     0.8866217583
11
# Point -2 Energy = 0.009204329999988659
C       1.2139719630     -0.0000000828     0.2621819046
C       -0.0000000023     0.0000000029     -0.5216163666
H       1.3049239614     -0.8857850441     0.8929999102
H       1.3049236710     0.8857850996     0.8929996512
H       2.0493146055     0.0000000648     -0.4380652974
C       -1.2139719058     0.0000000906     0.2621819381
H       -0.0000004050     -0.8729641675     -1.1787853575
H       0.0000001047     0.8729641070     -1.1787854459
H       -1.3049236688     -0.8857851784     0.8929995249
H       -2.0493144424     0.0000006915     -0.4380653947
H       -1.3049239418     0.8857850822     0.8929999520
11
# Point -1 Energy = 0.0021549299999747973
C       1.2407972398     -0.0000000416     0.2607717859
C       -0.0000000010     0.0000000013     -0.5542464808
H       1.3055150296     -0.8833533732     0.8987339610
H       1.3055148853     0.8833533997     0.8987338284
H       2.1080903273     0.0000000335     -0.3998628886
C       -1.2407972102     0.0000000367     0.2607718031
H       -0.0000002004     -0.8734273531     -1.2107308781
H       0.0000000209     0.8734273227     -1.2107309223
H       -1.3055148851     -0.8833534400     0.8987337662
H       -2.1080902481     0.0000006874     -0.3998629388
H       -1.3055150187     0.8833533926     0.8987339829
11
# Point 0 Energy = 0
C       1.2672042126     0.0000000000     0.2594997522
C       0.0000000000     0.0000000000     -0.5872081259
H       1.3052750505     -0.8806643351     0.9038259677
H       1.3052750505     0.8806643351     0.9038259677
H       2.1646165232     0.0000000000     -0.3599948239
C       -1.2672042126     -0.0000000181     0.2594997522
H       0.0000000000     -0.8738729764     -1.2430302913
H       -0.0000000606     0.8738729764     -1.2430302913
H       -1.3052750505     -0.8806643351     0.9038259677
H       -2.1646165232     0.0000006841     -0.3599948239
H       -1.3052750505     0.8806643351     0.9038259677
11
# Point 1 Energy = 0.001902860000001283
C       1.2931872246     0.0000000409     0.2583903935
C       0.0000000005     -0.0000000013     -0.6204718372
H       1.3042379529     -0.8777095006     0.9082807371
H       1.3042380930     0.8777094744     0.9082808758
H       2.2188012718     -0.0000000344     -0.3185394010
C       -1.2931872563     -0.0000000727     0.2583903754
H       0.0000001968     -0.8743010391     -1.2756542350
H       -0.0000001406     0.8743010695     -1.2756541907
H       -1.3042380917     -0.8777094322     0.9082809362
H       -2.2188013459     0.0000006810     -0.3185393481
H       -1.3042379657     0.8777094805     0.9082807131
11
# Point 2 Energy = 0.007160259999992036
C       1.3187409931     0.0000000802     0.2574684442
C       0.0000000006     -0.0000000028     -0.6540076937
H       1.3024388955     -0.8744807908     0.9121049122
H       1.3024391705     0.8744807365     0.9121051963
H       2.2705556693     -0.0000000683     -0.2755794522
C       -1.3187410584     -0.0000001263     0.2574684074
H       0.0000003906     -0.8747115628     -1.3085728589
H       -0.0000002198     0.8747116236     -1.3085727700
H       -1.3024391666     -0.8744806502     0.9121053153
H       -2.2705558124     0.0000006772     -0.2755793440
H       -1.3024389229     0.8744807496     0.9121048623
11
# Point 3 Energy = 0.015184349999998403
C       1.3438600817     0.0000001186     0.2567595376
C       0.0000000001     -0.0000000042     -0.6877849390
H       1.2999230580     -0.8709703220     0.9153105972
H       1.2999234627     0.8709702393     0.9153110327
H       2.3197996679     -0.0000001030     -0.2312108577
C       -1.3438601828     -0.0000001793     0.2567594817
H       0.0000005804     -0.8751045498     -1.3417555015
H       -0.0000002973     0.8751046410     -1.3417553678
H       -1.2999234546     -0.8709701069     0.9153112083
H       -2.3197998745     0.0000006732     -0.2312106924
H       -1.2999231023     0.8709702590     0.9153105198
11
# Point 4 Energy = 0.025484760000011875
C       1.3685392917     0.0000001555     0.2562891083
C       -0.0000000008     -0.0000000055     -0.7217728112
H       1.2967359452     -0.8671712466     0.9179126343
H       1.2967364733     0.8671711347     0.9179132268
H       2.3664605521     -0.0000001381     -0.1855348020
C       -1.3685394304     -0.0000002315     0.2562890328
H       0.0000007663     -0.8754800121     -1.3751714776
H       -0.0000003732     0.8754801338     -1.3751712992
H       -1.2967364592     -0.8671709540     0.9179134570
H       -2.3664608167     0.0000006688     -0.1855345783
H       -1.2967360088     0.8671711610     0.9179125279
11
# Point 5 Energy = 0.03764917999998829
C       1.3927735225     0.0000001908     0.2560824766
C       -0.0000000023     -0.0000000068     -0.7559405680
H       1.2929229619     -0.8630779816     0.9199288009
H       1.2929236066     0.8630778392     0.9199295553
H       2.4104754095     -0.0000001737     -0.1386581989
C       -1.3927737007     -0.0000002826     0.2560823814
H       0.0000009481     -0.8758379617     -1.4087901190
H       -0.0000004476     0.8758381140     -1.4087898957
H       -1.2929235849     -0.8630776080     0.9199298382
H       -2.4104757263     0.0000006638     -0.1386579160
H       -1.2929230475     0.8630778726     0.9199286642
11
# Point 6 Energy = 0.05133001999999465
C       1.4165577742     0.0000002242     0.2561646893
C       -0.0000000043     -0.0000000080     -0.7902576483
H       1.2885288469     -0.8586862190     0.9213794873
H       1.2885296007     0.8586860442     0.9213804080
H       2.4517918307     -0.0000002094     -0.0906926461
C       -1.4165579937     -0.0000003322     0.2561645744
H       0.0000011258     -0.8761784101     -1.4425809355
H       -0.0000005203     0.8761785930     -1.4425806674
H       -1.2885295695     -0.8586857604     0.9213807415
H       -2.4517921939     0.0000006579     -0.0906923037
H       -1.2885289572     0.8586860857     0.9213793194
