11
# Point -3 Energy = 0.06823275000000706
C       1.2662963780     -0.0479345408     0.2599302287
C       0.0000000320     -0.0000008814     -0.5867789859
H       1.2838627680     -0.7919123971     0.8143230010
H       1.3304038177     0.9705915590     0.9916376487
H       2.1638055024     -0.0532013576     -0.3594022870
C       -1.2662962369     0.0479330768     0.2599302278
H       -0.0185605970     -0.8736928909     -1.2425752376
H       0.0185606890     0.8736949267     -1.2425780486
H       -1.3304034771     -0.9705909940     0.9916366941
H       -2.1638061549     0.0532005100     -0.3594028510
H       -1.2838627818     0.7919136553     0.8143246287
11
# Point -2 Energy = 0.029180809999999724
C       1.2668005269     -0.0319677200     0.2596911005
C       0.0000000252     -0.0000005664     -0.5870173798
H       1.2905903247     -0.8213660340     0.8443419433
H       1.3216120061     0.9404850454     0.9625582462
H       2.1642559111     -0.0354834420     -0.3597315000
C       -1.2668004261     0.0319667480     0.2596911037
H       -0.0123788890     -0.8737925852     -1.2428276718
H       0.0123789172     0.8737939685     -1.2428295682
H       -1.3216117388     -0.9404846734     0.9625575940
H       -2.1642563406     0.0354830374     -0.3597318709
H       -1.2905903773     0.8213668878     0.8443430220
11
# Point -1 Energy = 0.007129410000004555
C       1.2671032760     -0.0159872712     0.2595476224
C       0.0000000146     -0.0000002511     -0.5871604122
H       1.2977272662     -0.8509499645     0.8741768644
H       1.3132364273     0.9105093051     0.9332870370
H       2.1645263984     -0.0177465065     -0.3599289968
C       -1.2671032223     0.0159867913     0.2595476256
H       -0.0061909754     -0.8738526451     -1.2429793313
H       0.0061909530     0.8738533758     -1.2429803131
H       -1.3132362338     -0.9105091170     0.9332866972
H       -2.1645266103     0.0177465460     -0.3599291800
H       -1.2977273543     0.8509504033     0.8741774057
11
# Point 0 Energy = 0
C       1.2672042126     0.0000000000     0.2594997522
C       0.0000000000     0.0000000000     -0.5872081259
H       1.3052750505     -0.8806643351     0.9038259677
H       1.3052750505     0.8806643351     0.9038259677
H       2.1646165232     0.0000000000     -0.3599948239
C       -1.2672042126     -0.0000000181     0.2594997522
H       0.0000000000     -0.8738729764     -1.2430302913
H       -0.0000000606     0.8738729764     -1.2430302913
H       -1.3052750505     -0.8806643351     0.9038259677
H       -2.1646165232     0.0000006841     -0.3599948239
H       -1.3052750505     0.8806643351     0.9038259677
11
# Point 1 Energy = 0.007129419999998277
C       1.2671032545     0.0159872283     0.2595475952
C       -0.0000000184     0.0000003798     -0.5871604163
H       1.3132363002     -0.9105094353     0.9332870124
H       1.2977273184     0.8509499407     0.8741769222
H       2.1645261924     0.0177464060     -0.3599288844
C       -1.2671033149     -0.0159867236     0.2595475881
H       0.0061910569     -0.8738534317     -1.2429803464
H       -0.0061911426     0.8738528565     -1.2429795002
H       -1.2977272747     -0.8509500922     0.8741772401
H       -2.1645259860     -0.0177454761     -0.3599287067
H       -1.3132364464     0.9105090138     0.9332865147
11
# Point 2 Energy = 0.0291808399999951
C       1.2668004838     0.0319676784     0.2596910469
C       -0.0000000404     0.0000006951     -0.5870173879
H       1.3216118402     -0.9404852267     0.9625582407
H       1.2905903398     0.8213660653     0.8443420170
H       2.1642554993     0.0354833416     -0.3597312741
C       -1.2668006115     -0.0319666815     0.2596910280
H       0.0123789931     -0.8737941587     -1.2428297016
H       -0.0123790900     0.8737929296     -1.2428279426
H       -1.2905903731     -0.8213663720     0.8443426788
H       -2.1642550916     -0.0354819659     -0.3597309255
H       -1.3216120102     0.9404843608     0.9625572393
11
# Point 3 Energy = 0.06823286000000905
C       1.2662963132     0.0479345016     0.2599301486
C       -0.0000000662     0.0000010100     -0.5867789981
H       1.3304036120     -0.9705917899     0.9916376633
H       1.2838627469     0.7919124849     0.8143230899
H       2.1638048847     0.0532012572     -0.3594019476
C       -1.2662965150     -0.0479330123     0.2599301140
H       0.0185607386     -0.8736952517     -1.2425782816
H       -0.0185608337     0.8736933677     -1.2425756111
H       -1.2838628577     -0.7919129368     0.8143241061
H       -2.1638042811     -0.0531994356     -0.3594014337
H       -1.3304038022     0.9705904709     0.9916361689
