11
# Point -5 Energy = 0.0721080900000004
C       1.2027299127     -0.0000000119     0.1385085122
C       -0.2381241099     -0.0000000006     -0.5533406717
H       1.3418104286     -0.7957282524     0.8836151835
H       1.3418104026     0.7957282233     0.8836151930
H       2.1595464122     0.0000000111     -0.3903546864
C       -1.3549026956     -0.0000000226     0.3710911945
H       0.1656544873     -0.7904512003     -1.1904501493
H       0.1656543486     0.7904511772     -1.1904502845
H       -1.3291096824     -0.9509314009     0.8924401063
H       -2.1259597898     0.0000007461     -0.3960696104
H       -1.3291097749     0.9509313970     0.8924402317
11
# Point -4 Energy = 0.04733698999999092
C       1.2131491449     -0.0000000090     0.1613832817
C       -0.1941765337     0.0000000004     -0.5644729856
H       1.3305656173     -0.8136640731     0.8885419386
H       1.3305655973     0.8136640525     0.8885419440
H       2.1605630999     0.0000000082     -0.3830297038
C       -1.3377171284     -0.0000000214     0.3506177018
H       0.1410054861     -0.8183161580     -1.2061658460
H       0.1410053625     0.8183161360     -1.2061659558
H       -1.3218381407     -0.9383311292     0.8975198768
H       -2.1412843550     0.0000007367     -0.3832452108
H       -1.3218382108     0.9383311228     0.8975199779
11
# Point -3 Energy = 0.027279979999974557
C       1.2246163621     -0.0000000063     0.1852336020
C       -0.1481281884     0.0000000010     -0.5738214371
H       1.3207332308     -0.8311564614     0.8933472323
H       1.3207332164     0.8311564480     0.8933472346
H       2.1617970402     0.0000000057     -0.3755303380
C       -1.3199993367     -0.0000000204     0.3292526711
H       0.1115828919     -0.8414942598     -1.2205012162
H       0.1115827839     0.8414942404     -1.2205012992
H       -1.3152526839     -0.9249465150     0.9014010629
H       -2.1524126432     0.0000007259     -0.3725836323
H       -1.3152527337     0.9249465078     0.9014011389
11
# Point -2 Energy = 0.012378949999984457
C       1.2373387099     -0.0000000038     0.2098345538
C       -0.1000909436     0.0000000011     -0.5810354669
H       1.3128202252     -0.8481769318     0.8977850116
H       1.3128202159     0.8481769244     0.8977850120
H       2.1631414561     0.0000000036     -0.3684721665
C       -1.3019737239     -0.0000000196     0.3069356989
H       0.0775218536     -0.8590730667     -1.2323447226
H       0.0775217616     0.8590730518     -1.2323447780
H       -1.3097637996     -0.9108366595     0.9038487435
H       -2.1595719847     0.0000007136     -0.3647956610
H       -1.3097638311     0.9108366530     0.9038487941
11
# Point -1 Energy = 0.003139340000004154
C       1.2515284433     -0.0000000017     0.2347671667
C       -0.0504608219     0.0000000007     -0.5856355335
H       1.3075017787     -0.8646923591     0.9014369109
H       1.3075017743     0.8646923561     0.9014369105
H       2.1642902080     0.0000000017     -0.3628960823
C       -1.2841560647     -0.0000000188     0.2836416577
H       0.0397248508     -0.8701088223     -1.2402606348
H       0.0397247747     0.8701088138     -1.2402606625
H       -1.3061583276     -0.8960584951     0.9046692828
H       -2.1633383336     0.0000006996     -0.3605233047
H       -1.3061583426     0.8960584910     0.9046693080
11
# Point 0 Energy = 0
C       1.2672042126     0.0000000000     0.2594997522
C       0.0000000000     0.0000000000     -0.5872081259
H       1.3052750505     -0.8806643351     0.9038259677
H       1.3052750505     0.8806643351     0.9038259677
H       2.1646165232     0.0000000000     -0.3599948239
C       -1.2672042126     -0.0000000181     0.2594997522
H       0.0000000000     -0.8738729764     -1.2430302913
H       -0.0000000606     0.8738729764     -1.2430302913
H       -1.3052750505     -0.8806643351     0.9038259677
H       -2.1646165232     0.0000006841     -0.3599948239
H       -1.3052750505     0.8806643351     0.9038259677
11
# Point 1 Energy = 0.003139340000004154
C       1.2841560012     0.0000000012     0.2836414862
C       0.0504608146     -0.0000000011     -0.5856356452
H       1.3061586303     -0.8960583240     0.9046693655
H       1.3061586343     0.8960583256     0.9046693668
H       2.1633385078     -0.0000000016     -0.3605231526
C       -1.2515283847     -0.0000000173     0.2347670089
H       -0.0397248613     -0.8701088532     -1.2402607199
H       -0.0397249070     0.8701088636     -1.2402606928
H       -1.3075020787     -0.8646921761     0.9014369788
H       -2.1642903526     0.0000006671     -0.3628959308
H       -1.3075020646     0.8646921818     0.9014369541
11
# Point 2 Energy = 0.012378949999984457
C       1.3019735925     0.0000000020     0.3069353435
C       0.1000909143     -0.0000000027     -0.5810356899
H       1.3097644115     -0.9108363309     0.9038489228
H       1.3097644191     0.9108363330     0.9038489261
H       2.1595723699     -0.0000000031     -0.3647953585
C       -1.2373385987     -0.0000000166     0.2098342527
H       -0.0775218951     -0.8590731289     -1.2323448901
H       -0.0775219270     0.8590731513     -1.2323448368
H       -1.3128208263     -0.8481765557     0.8977851315
H       -2.1631417224     0.0000006489     -0.3684718653
H       -1.3128207986     0.8481765686     0.8977850828
11
# Point 3 Energy = 0.027279969999995046
C       1.3199991328     0.0000000024     0.3292521222
C       0.1481281228     -0.0000000046     -0.5738217706
H       1.3152536131     -0.9249460446     0.9014013517
H       1.3152536240     0.9249460463     0.9014013575
H       2.1524132817     -0.0000000047     -0.3725831846
C       -1.2246162053     -0.0000000157     0.1852331724
H       -0.1115829834     -0.8414943542     -1.2205014614
H       -0.1115830028     0.8414943899     -1.2205013831
H       -1.3207341371     -0.8311558833     0.8933473881
H       -2.1617974107     0.0000006295     -0.3755298894
H       -1.3207340957     0.8311559049     0.8933473161
11
# Point 4 Energy = 0.04733695999999554
C       1.3377168467     0.0000000024     0.3506169531
C       0.1941764187     -0.0000000068     -0.5644734281
H       1.3218393948     -0.9383305351     0.8975202873
H       1.3218394089     0.9383305360     0.8975202957
H       2.1412852918     -0.0000000064     -0.3832446285
C       -1.2131489501     -0.0000000149     0.1613827387
H       -0.1410056444     -0.8183162857     -1.2061661630
H       -0.1410056530     0.8183163359     -1.2061660610
H       -1.3305668342     -0.8136632860     0.8885421144
H       -2.1605635609     0.0000006091     -0.3830291099
H       -1.3305667789     0.8136633176     0.8885420202
11
# Point 5 Energy = 0.07210802000000172
C       1.3549023306     0.0000000022     0.3710902447
C       0.2381239346     -0.0000000093     -0.5533412205
H       1.3291112657     -0.9509307038     0.8924406498
H       1.3291112829     0.9509307036     0.8924406606
H       2.1259610687     -0.0000000085     -0.3960689117
C       -1.2027296867     -0.0000000140     0.1385078708
H       -0.1656547256     -0.7904513625     -1.1904505317
H       -0.1656547253     0.7904514278     -1.1904504074
H       -1.3418119618     -0.7957272505     0.8836153641
H       -2.1595469517     0.0000005879     -0.3903539484
H       -1.3418118920     0.7957272931     0.8836152487
