11
# Point -5 Energy = 0.07331844999998793
C       1.2611423427     -0.1342070405     0.2566220344
C       -0.0000000193     0.0000001551     -0.5884988513
H       1.3412900626     -0.9363445375     0.9918830717
H       1.2671925399     0.8174257589     0.7935147406
H       2.1546261861     -0.0497866389     -0.3627986699
C       -1.2611424849     0.1342068360     0.2566219776
H       0.4092013217     -0.7965532094     -1.2144490361
H       -0.4092017395     0.7965533393     -1.2144490493
H       -1.2671922698     -0.8174257984     0.7935149661
H       -2.1546261321     0.0497872946     -0.3627990764
H       -1.3412898681     0.9363445068     0.9918829114
11
# Point -4 Energy = 0.0473948399999955
C       1.2628273758     -0.1073809468     0.2577814022
C       -0.0000000169     0.0000001339     -0.5886565380
H       1.3329225492     -0.9243874397     0.9777727927
H       1.2748663984     0.8318402437     0.8156970148
H       2.1580614401     -0.0416281538     -0.3613751292
C       -1.2628274862     0.1073807797     0.2577813560
H       0.3326461228     -0.8234911768     -1.2250251234
H       -0.3326464817     0.8234913125     -1.2250251493
H       -1.2748661647     -0.8318402719     0.8156971931
H       -2.1580613891     0.0416287678     -0.3613754513
H       -1.3329224082     0.9243874173     0.9777726514
11
# Point -3 Energy = 0.02686332000000391
C       1.2645165195     -0.0805455541     0.2585896244
C       -0.0000000141     0.0000001142     -0.5883054137
H       1.3255859080     -0.9130991737     0.9616323889
H       1.2827559540     0.8452398727     0.8380685194
H       2.1608560730     -0.0323089442     -0.3605799534
C       -1.2645166000     0.0805454274     0.2585895898
H       0.2526421676     -0.8451340295     -1.2330352153
H       -0.2526424600     0.8451341630     -1.2330352546
H       -1.2827557539     -0.8452398895     0.8380686500
H       -2.1608560294     0.0323095206     -0.3605801921
H       -1.3255858254     0.9130991592     0.9616322756
11
# Point -2 Energy = 0.012011859999986996
C       1.2659365890     -0.0536995163     0.2591136907
C       -0.0000000106     0.0000000960     -0.5877875541
H       1.3187832941     -0.9022202845     0.9437358575
H       1.2905726834     0.8577403144     0.8603903403
H       2.1629216678     -0.0220716330     -0.3601922238
C       -1.2659366412     0.0536994333     0.2591136681
H       0.1699506611     -0.8609736092     -1.2386312654
H       -0.1699508806     0.8609737322     -1.2386313172
H       -1.2905725135     -0.8577403203     0.8603904226
H       -2.1629216356     0.0220721754     -0.3601923804
H       -1.3187832746     0.9022202781     0.9437357805
11
# Point -1 Energy = 0.003017739999975788
C       1.2668763057     -0.0268477096     0.2594060436
C       -0.0000000060     0.0000000794     -0.5873668974
H       1.3121086126     -0.8914916808     0.9243694644
H       1.2981108220     0.8694890038     0.8824021004
H       2.1641893473     -0.0111984788     -0.3600346645
C       -1.2668763311     0.0268476730     0.2594060329
H       0.0854286863     -0.8706301243     -1.2419369116
H       -0.0854288283     0.8706302286     -1.2419369732
H       -1.2981106789     -0.8694889995     0.8824021340
H       -2.1641893300     0.0111989908     -0.3600347409
H       -1.3121086603     0.8914916835     0.9243694312
11
# Point 0 Energy = 0
C       1.2672042126     0.0000000000     0.2594997522
C       0.0000000000     0.0000000000     -0.5872081259
H       1.3052750505     -0.8806643351     0.9038259677
H       1.3052750505     0.8806643351     0.9038259677
H       2.1646165232     0.0000000000     -0.3599948239
C       -1.2672042126     -0.0000000181     0.2594997522
H       0.0000000000     -0.8738729764     -1.2430302913
H       -0.0000000606     0.8738729764     -1.2430302913
H       -1.3052750505     -0.8806643351     0.9038259677
H       -2.1646165232     0.0000006841     -0.3599948239
H       -1.3052750505     0.8806643351     0.9038259677
11
# Point 1 Energy = 0.003017739999975788
C       1.2668763199     0.0268476662     0.2594059639
C       0.0000000075     0.0000000507     -0.5873669208
H       1.2981107731     -0.8694890271     0.8824020614
H       1.3121087400     0.8914915442     0.9243695065
H       2.1641894433     0.0111983811     -0.3600346241
C       -1.2668762954     -0.0268476026     0.2594059738
H       -0.0854286127     -0.8706301446     -1.2419369482
H       0.0854286346     0.8706301891     -1.2419370168
H       -1.3121086412     -0.8914915224     0.9243694406
H       -2.1641894629     -0.0111979222     -0.3600345504
H       -1.2981109669     0.8694890537     0.8824021328
11
# Point 2 Energy = 0.012011849999979063
C       1.2659366173     0.0536994730     0.2591135311
C       0.0000000164     0.0000000384     -0.5877876015
H       1.2905726776     -0.8577402882     0.8603903057
H       1.3187834570     0.9022200849     0.9437358971
H       2.1629218591     0.0220715435     -0.3601921445
C       -1.2659365686     -0.0536993564     0.2591135511
H       -0.1699505889     -0.8609736488     -1.2386313391
H       0.1699506919     0.8609736538     -1.2386314037
H       -1.3187833743     -0.9022200560     0.9437357830
H       -2.1629219002     -0.0220711085     -0.3601919985
H       -1.2905729478     0.8577403304     0.8603904384
11
# Point 3 Energy = 0.026863309999995977
C       1.2645165613     0.0805455105     0.2585893863
C       0.0000000271     0.0000000275     -0.5883054865
H       1.2827559923     -0.8452398022     0.8380684920
H       1.3255861024     0.9130989075     0.9616324245
H       2.1608563586     0.0323088683     -0.3605798352
C       -1.2645164886     -0.0805453398     0.2585894153
H       -0.2526420976     -0.8451340861     -1.2330353272
H       0.2526422793     0.8451340467     -1.2330353826
H       -1.3255860325     -0.9130988724     0.9616322630
H       -2.1608564221     -0.0323084567     -0.3605796205
H       -1.2827563409     0.8452398629     0.8380686900
11
# Point 4 Energy = 0.04739482000000805
C       1.2628274300     0.1073809024     0.2577810880
C       0.0000000399     0.0000000179     -0.5886566379
H       1.2748664809     -0.8318401346     0.8156969976
H       1.3329227707     0.9243871036     0.9777728236
H       2.1580618184     0.0416280960     -0.3613749723
C       -1.2628273329     -0.1073806771     0.2577811251
H       -0.3326460553     -0.8234912472     -1.2250252751
H       0.3326463117     0.8234911601     -1.2250253169
H       -1.3329227103     -0.9243870634     0.9777726158
H       -2.1580619048     -0.0416277082     -0.3613746932
H       -1.2748669091     0.8318402166     0.8156972641
11
# Point 5 Energy = 0.07331841999999256
C       1.2611424081     0.1342069944     0.2566216473
C       0.0000000549     0.0000000097     -0.5884989807
H       1.2671926659     -0.8174256170     0.7935147369
H       1.3412903065     0.9363441289     0.9918830980
H       2.1546266555     0.0497866030     -0.3627984744
C       -1.2611422857     -0.1342067147     0.2566216915
H       -0.4092012568     -0.7965532892     -1.2144492292
H       0.4092015824     0.7965531534     -1.2144492541
H       -1.3412902522     -0.9363440844     0.9918828453
H       -2.1546267645     -0.0497862409     -0.3627981358
H       -1.2671931746     0.8174257228     0.7935150741
