11
# Point -4 Energy = 0.05279098999999121
C       1.1541595340     0.0000000827     0.2444838055
C       -0.0226796895     -0.0000003692     -0.5731710887
H       1.4216423666     -0.8145982936     0.9286153977
H       1.4216417883     0.8145985909     0.9286154320
H       2.1626137138     -0.0000000162     -0.1871642864
C       -1.3862883517     -0.0000006601     0.2923239981
H       -0.1842576772     -0.8636999074     -1.2225341702
H       -0.1842574223     0.8636994223     -1.2225339379
H       -1.1396216324     -0.9078870173     0.8365162568
H       -2.1033294662     0.0000023074     -0.5206224160
H       -1.1396232238     0.9078865266     0.8365160279
11
# Point -3 Energy = 0.02954269999999326
C       1.1823695039     0.0000000740     0.2474428165
C       -0.0159161942     -0.0000002757     -0.5792191972
H       1.3966560593     -0.8337159079     0.9252357654
H       1.3966556217     0.8337161272     0.9252357898
H       2.1676333459     -0.0000000087     -0.2310995851
C       -1.3555129315     -0.0000004891     0.2815882439
H       -0.1374738342     -0.8681073224     -1.2314236224
H       -0.1374736507     0.8681069575     -1.2314234392
H       -1.1850719205     -0.9066629904     0.8585521839
H       -2.1267929630     0.0000019209     -0.4823958957
H       -1.1850730972     0.9066625806     0.8585519591
11
# Point -2 Energy = 0.013037699999983943
C       1.2106305007     0.0000000571     0.2507624437
C       -0.0099242742     -0.0000001852     -0.5836771219
H       1.3691391767     -0.8512024331     0.9200810003
H       1.3691388822     0.8512025778     0.9200810134
H       2.1698659289     -0.0000000035     -0.2746592571
C       -1.3253465612     -0.0000003257     0.2725983351
H       -0.0911124349     -0.8712967169     -1.2378999706
H       -0.0911123261     0.8712964682     -1.2378998426
H       -1.2284694339     -0.9010794563     0.8770620150
H       -2.1443392983     0.0000015270     -0.4424654348
H       -1.2284702205     0.9010791566     0.8770618384
11
# Point -1 Energy = 0.0032425300000085144
C       1.2388506590     0.0000000324     0.2547123983
C       -0.0047351191     -0.0000000945     -0.5863336412
H       1.3387301770     -0.8669172438     0.9130383419
H       1.3387300275     0.8669173164     0.9130383455
H       2.1689271011     -0.0000000000     -0.3176654563
C       -1.2959531858     -0.0000001687     0.2653529112
H       -0.0453669855     -0.8732269754     -1.2417575932
H       -0.0453669568     0.8732268460     -1.2417575258
H       -1.2685931460     -0.8921840031     0.8920095120
H       -2.1566290886     0.0000011173     -0.4016016876
H       -1.2685935433     0.8921838394     0.8920094141
11
# Point 0 Energy = 0
C       1.2672042126     0.0000000000     0.2594997522
C       0.0000000000     0.0000000000     -0.5872081259
H       1.3052750505     -0.8806643351     0.9038259677
H       1.3052750505     0.8806643351     0.9038259677
H       2.1646165232     0.0000000000     -0.3599948239
C       -1.2672042126     -0.0000000181     0.2594997522
H       0.0000000000     -0.8738729764     -1.2430302913
H       -0.0000000606     0.8738729764     -1.2430302913
H       -1.3052750505     -0.8806643351     0.9038259677
H       -2.1646165232     0.0000006841     -0.3599948239
H       -1.3052750505     0.8806643351     0.9038259677
11
# Point 1 Energy = 0.0032425300000085144
C       1.2959530011     -0.0000000401     0.2653525412
C       0.0047350830     0.0000000941     -0.5863339000
H       1.2685939970     -0.8921835545     0.8920097234
H       1.2685941411     0.8921834821     0.8920097268
H       2.1566293718     0.0000000026     -0.4016014278
C       -1.2388505316     0.0000001210     0.2547120504
H       0.0453669477     -0.8732268787     -1.2417577292
H       0.0453667886     0.8732270153     -1.2417577972
H       -1.3387309743     -0.8669167171     0.9130384580
H       -2.1689273323     0.0000002356     -0.3176651912
H       -1.3387305527     0.8669169057     0.9130385644
11
# Point 2 Energy = 0.013037660000009055
C       1.3253461329     -0.0000000881     0.2725975530
C       0.0099241265     0.0000001853     -0.5836776559
H       1.2284712216     -0.9010786584     0.8770625647
H       1.2284715012     0.9010785140     0.8770625784
H       2.1443399599     0.0000000101     -0.4424649202
C       -1.2106303057     0.0000002473     0.2507617542
H       0.0911122783     -0.8712965265     -1.2379002650
H       0.0911120129     0.8712968037     -1.2379004007
H       -1.3691407412     -0.8512013125     0.9200811546
H       -2.1698663695     -0.0000002226     -0.2746587201
H       -1.3691398776     0.8512017137     0.9200813758
11
# Point 3 Energy = 0.029542589999977054
C       1.3555122027     -0.0000001446     0.2815869907
C       0.0159158587     0.0000002744     -0.5792200339
H       1.1850747273     -0.9066619827     0.8585532261
H       1.1850751367     0.9066617645     0.8585532607
H       2.1267941495     0.0000000220     -0.4823951474
C       -1.1823692999     0.0000003601     0.2474417829
H       0.1374734749     -0.8681070371     -1.2314241098
H       0.1374730928     0.8681074609     -1.2314243151
H       -1.3966583668     -0.8337141332     0.9252358953
H       -2.1676339887     -0.0000006919     -0.2310987661
H       -1.3966570479     0.8337147736     0.9252362356
11
# Point 4 Energy = 0.052790789999988874
C       1.3862872969     -0.0000002100     0.2923222376
C       0.0226791259     0.0000003597     -0.5731722400
H       1.1396254398     -0.9078860030     0.8365179266
H       1.1396259738     0.9078857085     0.8365179944
H       2.1033313168     0.0000000410     -0.5206215290
C       -1.1541593492     0.0000004576     0.2444824323
H       0.1842570706     -0.8636995234     -1.2225348716
H       0.1842565608     0.8637000975     -1.2225351482
H       -1.4216453767     -0.8145958088     0.9286154625
H       -2.1626145257     -0.0000011685     -0.1871631692
H       -1.4216435936     0.8145967154     0.9286159235
