11
# Point -5 Energy = 0.07293710999999803
C       1.2762308376     0.0000001724     0.1344202004
C       -0.0000001214     -0.0000002829     -0.5174047361
H       1.0616729130     -0.8057551426     0.8446304538
H       1.0616734830     0.8057554802     0.8446305980
H       2.3027492613     -0.0000002745     -0.2099831461
C       -1.2762307172     0.0000001625     0.1344198803
H       0.0000003417     -0.8628837935     -1.1844733456
H       -0.0000002180     0.8628836051     -1.1844728560
H       -1.0616730692     -0.8057551773     0.8446301864
H       -2.3027494836     0.0000006520     -0.2099827793
H       -1.0616732877     0.8057552646     0.8446305631
11
# Point -4 Energy = 0.046286859999980834
C       1.2766998625     0.0000001505     0.1586532281
C       -0.0000000917     -0.0000002327     -0.5313971631
H       1.1111756286     -0.8259646839     0.8576219492
H       1.1111760891     0.8259649517     0.8576220680
H       2.2843242258     -0.0000002293     -0.2418351209
C       -1.2766997582     0.0000001302     0.1586529711
H       0.0000002783     -0.8653924796     -1.1958411330
H       -0.0000001879     0.8653923294     -1.1958407211
H       -1.1111757519     -0.8259647081     0.8576217346
H       -2.2843244319     0.0000006515     -0.2418348275
H       -1.1111759233     0.8259647862     0.8576220333
11
# Point -3 Energy = 0.02575459000000535
C       1.2760458294     0.0000001216     0.1833910063
C       -0.0000000649     -0.0000001796     -0.5453014497
H       1.1609470816     -0.8435871370     0.8702573486
H       1.1609474274     0.8435873347     0.8702574399
H       2.2611162440     -0.0000001770     -0.2734273147
C       -1.2760457454     0.0000000959     0.1833908133
H       0.0000002119     -0.8677453872     -1.2073053239
H       -0.0000001573     0.8677452742     -1.2073050002
H       -1.1609471709     -0.8435871517     0.8702571872
H       -2.2611164209     0.0000006557     -0.2734270966
H       -1.1609472955     0.8435872162     0.8702574085
11
# Point -2 Energy = 0.011284809999992262
C       1.2742535423     0.0000000864     0.2085264943
C       -0.0000000409     -0.0000001233     -0.5591840815
H       1.2104249023     -0.8585537967     0.8823096758
H       1.2104251311     0.8585539255     0.8823097383
H       2.2332211740     -0.0000001198     -0.3040957734
C       -1.2742534825     0.0000000598     0.2085263658
H       0.0000001429     -0.8699428799     -1.2189356384
H       -0.0000001260     0.8699428037     -1.2189354131
H       -1.2104249584     -0.8585538036     0.8823095680
H       -2.2332213074     0.0000006634     -0.3040956307
H       -1.2104250380     0.8585538506     0.8823097137
11
# Point -1 Energy = 0.0027651199999922937
C       1.2713099422     0.0000000456     0.2339407362
C       -0.0000000193     -0.0000000635     -0.5731224613
H       1.2588361043     -0.8708761348     0.8935563518
H       1.2588362167     0.8708761973     0.8935563840
H       2.2009114901     -0.0000000601     -0.3331572494
C       -1.2713099105     0.0000000217     0.2339406720
H       0.0000000721     -0.8719853019     -1.2308125096
H       -0.0000000938     0.8719852630     -1.2308123924
H       -1.2588361300     -0.8708761365     0.8935562979
H       -2.2009115647     0.0000006733     -0.3331571801
H       -1.2588361675     0.8708761620     0.8935563699
11
# Point 0 Energy = 0
C       1.2672042126     0.0000000000     0.2594997522
C       0.0000000000     0.0000000000     -0.5872081259
H       1.3052750505     -0.8806643351     0.9038259677
H       1.3052750505     0.8806643351     0.9038259677
H       2.1646165232     0.0000000000     -0.3599948239
C       -1.2672042126     -0.0000000181     0.2594997522
H       0.0000000000     -0.8738729764     -1.2430302913
H       -0.0000000606     0.8738729764     -1.2430302913
H       -1.3052750505     -0.8806643351     0.9038259677
H       -2.1646165232     0.0000006841     -0.3599948239
H       -1.3052750505     0.8806643351     0.9038259677
11
# Point 1 Energy = 0.002655189999998697
C       1.2619269051     -0.0000000498     0.2850646337
C       0.0000000174     0.0000000676     -0.6015380960
H       1.3490605271     -0.8880870085     0.9130672016
H       1.3490604216     0.8880869506     0.9130671653
H       2.1248001178     0.0000000588     -0.3842187477
C       -1.2619269400     -0.0000000598     0.2850646976
H       -0.0000000733     -0.8756061529     -1.2556886683
H       -0.0000000258     0.8756061948     -1.2556887935
H       -1.3490605072     -0.8880870111     0.9130672537
H       -2.1248000274     0.0000006956     -0.3842188107
H       -1.3490604761     0.8880869808     0.9130671833
11
# Point 2 Energy = 0.01029471999999032
C       1.2554708009     -0.0000001032     0.3105008445
C       0.0000000332     0.0000001394     -0.6162043499
H       1.3896057818     -0.8933745627     0.9212967297
H       1.3896055808     0.8933744517     0.9212966512
H       2.0819579288     0.0000001152     -0.4055873558
C       -1.2554708736     -0.0000001038     0.3105009719
H       -0.0000001470     -0.8771849997     -1.2688821317
H       0.0000000104     0.8771850877     -1.2688823889
H       -1.3896057492     -0.8933745727     0.9212968313
H       -2.0819577328     0.0000007074     -0.4055874737
H       -1.3896056939     0.8933745068     0.9212966902
11
# Point 3 Energy = 0.022430159999998978
C       1.2478320537     -0.0000001593     0.3356805887
C       0.0000000475     0.0000002160     -0.6312902194
H       1.4263006654     -0.8968380397     0.9285694724
H       1.4263003825     0.8968378795     0.9285693439
H       2.0366248344     0.0000001683     -0.4239554449
C       -1.2478321670     -0.0000001500     0.3356807794
H       -0.0000002206     -0.8786096807     -1.2826962621
H       0.0000000477     0.8786098205     -1.2826966572
H       -1.4263006281     -0.8968380618     0.9285696198
H       -2.0366245184     0.0000007188     -0.4239556078
H       -1.4263005576     0.8968379546     0.9285694063
11
# Point 4 Energy = 0.038579929999983165
C       1.2390093932     -0.0000002174     0.3605001989
C       0.0000000604     0.0000002977     -0.6468544677
H       1.4588054533     -0.8987979752     0.9349950793
H       1.4588051059     0.8987977683     0.9349948913
H       1.9892529958     0.0000002178     -0.4393484938
C       -1.2390095496     -0.0000001980     0.3605004529
H       -0.0000002937     -0.8798803330     -1.2971918293
H       0.0000000858     0.8798805311     -1.2971923681
H       -1.4588054196     -0.8987980137     0.9349952680
H       -1.9892525467     0.0000007295     -0.4393486911
H       -1.4588053455     0.8987978590     0.9349949785
11
# Point 5 Energy = 0.05829591999999195
C       1.2290042027     -0.0000002764     0.3848881408
C       0.0000000720     0.0000003845     -0.6629234172
H       1.4870411616     -0.8995481219     0.9407022348
H       1.4870407702     0.8995478697     0.9407019763
H       1.9401846985     0.0000002640     -0.4519111005
C       -1.2290044046     -0.0000002477     0.3848884581
H       -0.0000003661     -0.8809970710     -1.3123969069
H       0.0000001248     0.8809973341     -1.3123975947
H       -1.4870411397     -0.8995481812     0.9407024596
H       -1.9401841042     0.0000007401     -0.4519113204
H       -1.4870410758     0.8995479719     0.9407020893
