11
# Point -5 Energy = 0.05162446000001353
C       1.2590059995     0.1427383634     0.2743558561
C       -0.0000001224     0.0000003629     -0.5725499661
H       1.0941142511     -0.8635733752     0.6774690616
H       1.5158682384     0.8270191562     1.0792306349
H       2.1306342390     -0.0403532413     -0.3548212248
C       -1.2590065710     -0.1427379447     0.2743550882
H       0.3675115580     -0.8001435731     -1.2194353334
H       -0.3675107213     0.8001430239     -1.2194375630
H       -1.5158675069     -0.8270197094     1.0792293812
H       -2.1306356279     0.0403544887     -0.3548205206
H       -1.0941137970     0.8635731147     0.6774696047
11
# Point -4 Energy = 0.03321961999999701
C       1.2617997829     0.1154935715     0.2693043687
C       -0.0000000997     0.0000003036     -0.5775973459
H       1.1346393279     -0.8738181844     0.7225220071
H       1.4754782901     0.8404309192     1.0521659223
H       2.1425261213     -0.0300656830     -0.3569989551
C       -1.2618002351     -0.1154932309     0.2693037711
H       0.2979136442     -0.8260793904     -1.2276709543
H       -0.2979129930     0.8260789262     -1.2276727358
H       -1.4754776827     -0.8404313177     1.0521648636
H       -2.1425272266     0.0300667921     -0.3569983764
H       -1.1346389900     0.8738179598     0.7225224536
11
# Point -3 Energy = 0.018771280000009938
C       1.2640956002     0.0873695718     0.2651470043
C       -0.0000000758     0.0000002441     -0.5816995051
H       1.1763306127     -0.8808140375     0.7683311163
H       1.4339458128     0.8532048381     1.0206183845
H       2.1520502516     -0.0212029695     -0.3584481109
C       -1.2640959349     -0.0873693128     0.2651465691
H       0.2257431108     -0.8467235100     -1.2342752222
H       -0.2257426453     0.8467231507     -1.2342765578
H       -1.4339453313     -0.8532050994     1.0206175487
H       -2.1520510750     0.0212039341     -0.3584476676
H       -1.1763303866     0.8808138564     0.7683314595
11
# Point -2 Energy = 0.00838723999999047
C       1.2658014279     0.0585880246     0.2620509485
C       -0.0000000511     0.0000001843     -0.5847279565
H       1.2188845763     -0.8843039659     0.8143139978
H       1.3915328955     0.8646219815     0.9849737421
H       2.1589929208     -0.0134812918     -0.3593485631
C       -1.2658016475     -0.0585878489     0.2620506674
H       0.1515958704     -0.8617239126     -1.2391030228
H       -0.1515955876     0.8617236787     -1.2391039205
H       -1.3915325392     -0.8646221269     0.9849731564
H       -2.1589934650     0.0134821046     -0.3593482637
H       -1.2188844612     0.8843038385     0.8143142333
11
# Point -1 Energy = 0.0021094399999981306
C       1.2668505715     0.0293845944     0.2601431800
C       -0.0000000258     0.0000001244     -0.5865838755
H       1.2619772234     -0.8842109863     0.8597486688
H       1.3485372807     0.8739800048     0.9458041866
H       2.1632070636     -0.0065470982     -0.3598377382
C       -1.2668506793     -0.0293845017     0.2601430443
H       0.0761211391     -0.8708242377     -1.2420435278
H       -0.0761210326     0.8708241498     -1.2420440010
H       -1.3485370460     -0.8739800583     0.9458038752
H       -2.1632073327     0.0065477509     -0.3598375882
H       -1.2619772224     0.8842109239     0.8597487946
11
# Point 0 Energy = 0
C       1.2672042126     0.0000000000     0.2594997522
C       0.0000000000     0.0000000000     -0.5872081259
H       1.3052750505     -0.8806643351     0.9038259677
H       1.3052750505     0.8806643351     0.9038259677
H       2.1646165232     0.0000000000     -0.3599948239
C       -1.2672042126     -0.0000000181     0.2594997522
H       0.0000000000     -0.8738729764     -1.2430302913
H       -0.0000000606     0.8738729764     -1.2430302913
H       -1.3052750505     -0.8806643351     0.9038259677
H       -2.1646165232     0.0000006841     -0.3599948239
H       -1.3052750505     0.8806643351     0.9038259677
11
# Point 1 Energy = 0.0021094299999901978
C       1.2668507936     -0.0293846350     0.2601430362
C       0.0000000258     0.0000000042     -0.5865839435
H       1.3485370573     -0.8739800698     0.9458040654
H       1.2619771829     0.8842108824     0.8597486188
H       2.1632075388     0.0065469950     -0.3598375116
C       -1.2668506910     0.0293845718     0.2601431612
H       -0.0761210576     -0.8708240871     -1.2420439752
H       0.0761208424     0.8708243501     -1.2420436603
H       -1.2619771715     -0.8842108269     0.8597489140
H       -2.1632072765     -0.0065466872     -0.3598376589
H       -1.3485373048     0.8739801686     0.9458039728
11
# Point 2 Energy = 0.008387220000003026
C       1.2658018711     -0.0585880570     0.2620506620
C       0.0000000511     -0.0000000560     -0.5847280925
H       1.3915325347     -0.8646220483     0.9849735566
H       1.2188844098     0.8843038232     0.8143138469
H       2.1589938702     0.0134811810     -0.3593481149
C       -1.2658016721     0.0585879243     0.2620509003
H       -0.1515957671     -0.8617236132     -1.2391039139
H       0.1515954122     0.8617240794     -1.2391032432
H       -1.2188844985     -0.8843037498     0.8143144652
H       -2.1589933532     -0.0134810567     -0.3593484034
H       -1.3915329188     0.8646222391     0.9849733557
11
# Point 3 Energy = 0.01877125000000035
C       1.2640962633     -0.0873695911     0.2651465770
C       0.0000000756     -0.0000001161     -0.5816997092
H       1.4339453122     -0.8532049218     1.0206181524
H       1.1763303228     0.8808138439     0.7683308566
H       2.1520516724     0.0212028468     -0.3584474528
C       -1.2640959746     0.0873693967     0.2651469164
H       -0.2257429719     -0.8467230654     -1.2342765491
H       0.2257424945     0.8467237520     -1.2342755517
H       -1.1763305041     -0.8808137749     0.7683318065
H       -2.1520509095     -0.0212029119     -0.3584478709
H       -1.4339458413     0.8532052079     1.0206178436
11
# Point 4 Energy = 0.033219569999999976
C       1.2618006640     -0.1154935732     0.2693038026
C       0.0000000989     -0.0000001759     -0.5775976183
H       1.4754776488     -0.8404310352     1.0521656646
H       1.1346389149     0.8738179282     0.7225216311
H       2.1425280102     0.0300655450     -0.3569981033
C       -1.2618002927     0.1154933264     0.2693042312
H       -0.2979134576     -0.8260788056     -1.2276727057
H       0.2979128763     0.8260797286     -1.2276714126
H       -1.1346391826     -0.8738178841     0.7225229183
H       -2.1425270099     -0.0300658044     -0.3569986356
H       -1.4754783307     0.8404314161     1.0521652467
11
# Point 5 Energy = 0.05162439000001484
C       1.2590070965     -0.1427383437     0.2743551526
C       0.0000001201     -0.0000002351     -0.5725503072
H       1.5158674561     -0.8270193190     1.0792303744
H       1.0941137133     0.8635730440     0.6774685621
H       2.1306365927     0.0403530861     -0.3548201980
C       -1.2590066499     0.1427380545     0.2743556594
H       -0.3675113138     -0.8001428539     -1.2194374952
H       0.3675106475     0.8001440283     -1.2194359380
H       -1.0941140627     -0.8635730434     0.6774701902
H       -2.1306353626     -0.0403535429     -0.3548208263
H       -1.5158682979     0.8270197911     1.0792298449
