11
# Point -3 Energy = 0.06489239000001135
C       1.2446915508     0.0000000280     0.2443821645
C       -0.0187913512     0.0000001216     -0.5873548945
H       1.2980359843     -0.9889593207     0.9730216782
H       1.2980360934     0.9889594518     0.9730216858
H       2.2371751415     -0.0000000235     -0.4398211739
C       -1.2895713441     0.0000002759     0.2744138653
H       -0.0240929071     -0.8738744015     -1.2431573037
H       -0.0240928854     0.8738743757     -1.2431571616
H       -1.3147166580     -0.7717260895     0.8349917254
H       -2.0919571290     0.0000008696     -0.2802864710
H       -1.3147165558     0.7717253786     0.8349909043
11
# Point -2 Energy = 0.028185519999979647
C       1.2522124138     0.0000000185     0.2494414026
C       -0.0125289491     0.0000000811     -0.5872731033
H       1.3002060821     -0.9529318216     0.9499158008
H       1.3002061526     0.9529319088     0.9499158061
H       2.2129986425     -0.0000000150     -0.4132024909
C       -1.2821314642     0.0000001783     0.2694682423
H       -0.0160647730     -0.8738739733     -1.2430867899
H       -0.0160647788     0.8738739558     -1.2430866957
H       -1.3113230316     -0.8081088524     0.8578957103
H       -2.1161873965     0.0000008071     -0.3068380273
H       -1.3113229585     0.8081083788     0.8578951639
11
# Point -1 Energy = 0.006951600000007829
C       1.2597165679     0.0000000091     0.2544811430
C       -0.0062648891     0.0000000406     -0.5872242021
H       1.3026187609     -0.9168333961     0.9268505509
H       1.3026187950     0.9168334394     0.9268505538
H       2.1888125881     -0.0000000071     -0.3865928453
C       -1.2746758484     0.0000000803     0.2644962765
H       -0.0080332370     -0.8738734983     -1.2430444790
H       -0.0080332704     0.8738734893     -1.2430444323
H       -1.3081761865     -0.8444216669     0.8808404689
H       -2.1404071936     0.0000007451     -0.3334082115
H       -1.3081761476     0.8444214303     0.8808401960
11
# Point 0 Energy = 0
C       1.2672042126     0.0000000000     0.2594997522
C       0.0000000000     0.0000000000     -0.5872081259
H       1.3052750505     -0.8806643351     0.9038259677
H       1.3052750505     0.8806643351     0.9038259677
H       2.1646165232     0.0000000000     -0.3599948239
C       -1.2672042126     -0.0000000181     0.2594997522
H       0.0000000000     -0.8738729764     -1.2430302913
H       -0.0000000606     0.8738729764     -1.2430302913
H       -1.3052750505     -0.8806643351     0.9038259677
H       -2.1646165232     0.0000006841     -0.3599948239
H       -1.3052750505     0.8806643351     0.9038259677
11
# Point 1 Energy = 0.006951439999994591
C       1.2746755908     -0.0000000091     0.2644955243
C       0.0062648980     -0.0000000406     -0.5872248695
H       1.3081762621     -0.8444248378     0.8808421038
H       1.3081762305     0.8444247945     0.8808421006
H       2.1404101634     0.0000000063     -0.3334108996
C       -1.2597162929     -0.0000001168     0.2544803907
H       0.0080332439     -0.8738724076     -1.2430442178
H       0.0080331560     0.8738724170     -1.2430442640
H       -1.3026188591     -0.9168365542     0.9268521988
H       -2.1888155502     0.0000006236     -0.3865955192
H       -1.3026189032     0.9168367906     0.9268524707
11
# Point 2 Energy = 0.028184239999987426
C       1.2821309665     -0.0000000184     0.2694667381
C       0.0125289848     -0.0000000812     -0.5872744379
H       1.3113231601     -0.8081152070     0.8578989672
H       1.3113230994     0.8081151199     0.8578989605
H       2.1161933436     0.0000000119     -0.3068434177
C       -1.2522118464     -0.0000002154     0.2494398983
H       0.0160648003     -0.8738717918     -1.2430862672
H       0.0160646848     0.8738718113     -1.2430863592
H       -1.3002063006     -0.9529381249     0.9499191092
H       -2.2130045588     0.0000005634     -0.4132078245
H       -1.3002063943     0.9529385982     0.9499196521
11
# Point 3 Energy = 0.06488799999999628
C       1.2895706237     -0.0000000276     0.2744116097
C       0.0187914317     -0.0000001218     -0.5873568959
H       1.3147168168     -0.7717356403     0.8349965909
H       1.3147167295     0.7717355096     0.8349965803
H       2.0919660609     0.0000000165     -0.2802945780
C       -1.2446906737     -0.0000003142     0.2443799082
H       0.0240929686     -0.8738711291     -1.2431565192
H       0.0240928255     0.8738711591     -1.2431566564
H       -1.2980363455     -0.9889687564     0.9730266596
H       -2.2371840041     0.0000005039     -0.4398291530
H       -1.2980364940     0.9889694663     0.9730274727
