11
# Point -3 Energy = 0.06823285000001533
C       1.2662964591     -0.0479345352     0.2599304084
C       0.0000000320     -0.0000008814     -0.5867788062
H       1.2838645007     -0.7919124708     0.8143226557
H       1.3304053937     0.9705915719     0.9916373785
H       2.1638055802     -0.0532013457     -0.3594021191
C       -1.2662963180     0.0479330713     0.2599304075
H       -0.0185605920     -0.8736929109     -1.2425750594
H       0.0185606839     0.8736949467     -1.2425778705
H       -1.3304050528     -0.9705910069     0.9916364238
H       -2.1638062328     0.0532004981     -0.3594026831
H       -1.2838645148     0.7919137290     0.8143242834
11
# Point -2 Energy = 0.02918083000001559
C       1.2668005674     -0.0319677116     0.2596911897
C       0.0000000252     -0.0000005664     -0.5870172906
H       1.2905911491     -0.8213660560     0.8443417855
H       1.3216128276     0.9404850646     0.9625580985
H       2.1642559500     -0.0354834269     -0.3597314167
C       -1.2668004667     0.0319667396     0.2596911928
H       -0.0123788829     -0.8737925952     -1.2428275834
H       0.0123789111     0.8737939784     -1.2428294798
H       -1.3216125600     -0.9404846926     0.9625574462
H       -2.1642563795     0.0354830223     -0.3597317876
H       -1.2905912020     0.8213669097     0.8443428642
11
# Point -1 Energy = 0.007129410000004555
C       1.2671032758     -0.0159872629     0.2595476220
C       0.0000000146     -0.0000002511     -0.5871604126
H       1.2977272241     -0.8509499581     0.8741768731
H       1.3132364574     0.9105093114     0.9332870297
H       2.1645263982     -0.0177464920     -0.3599289972
C       -1.2671032221     0.0159867831     0.2595476252
H       -0.0061909695     -0.8738526450     -1.2429793317
H       0.0061909471     0.8738533757     -1.2429803135
H       -1.3132362639     -0.9105091234     0.9332866899
H       -2.1645266101     0.0177465315     -0.3599291805
H       -1.2977273122     0.8509503968     0.8741774145
11
# Point 0 Energy = 0
C       1.2672042126     0.0000000000     0.2594997522
C       0.0000000000     0.0000000000     -0.5872081259
H       1.3052750505     -0.8806643351     0.9038259677
H       1.3052750505     0.8806643351     0.9038259677
H       2.1646165232     0.0000000000     -0.3599948239
C       -1.2672042126     -0.0000000181     0.2594997522
H       0.0000000000     -0.8738729764     -1.2430302913
H       -0.0000000606     0.8738729764     -1.2430302913
H       -1.3052750505     -0.8806643351     0.9038259677
H       -2.1646165232     0.0000006841     -0.3599948239
H       -1.3052750505     0.8806643351     0.9038259677
11
# Point 1 Energy = 0.007129419999998277
C       1.2671032543     0.0159872200     0.2595475948
C       -0.0000000184     0.0000003798     -0.5871604167
H       1.3132363303     -0.9105094417     0.9332870051
H       1.2977272764     0.8509499342     0.8741769310
H       2.1645261922     0.0177463915     -0.3599288848
C       -1.2671033148     -0.0159867154     0.2595475877
H       0.0061910510     -0.8738534316     -1.2429803468
H       -0.0061911367     0.8738528564     -1.2429795006
H       -1.2977272327     -0.8509500857     0.8741772489
H       -2.1645259857     -0.0177454617     -0.3599287071
H       -1.3132364766     0.9105090202     0.9332865074
11
# Point 2 Energy = 0.029180859999996756
C       1.2668005243     0.0319676701     0.2596911361
C       -0.0000000404     0.0000006950     -0.5870172987
H       1.3216126615     -0.9404852459     0.9625580928
H       1.2905911644     0.8213660873     0.8443418593
H       2.1642555382     0.0354833264     -0.3597311907
C       -1.2668006521     -0.0319666731     0.2596911171
H       0.0123789869     -0.8737941686     -1.2428296132
H       -0.0123790838     0.8737929396     -1.2428278543
H       -1.2905911974     -0.8213663940     0.8443425211
H       -2.1642551305     -0.0354819507     -0.3597308422
H       -1.3216128317     0.9404843800     0.9625570915
11
# Point 3 Energy = 0.06823296000000312
C       1.2662963943     0.0479344961     0.2599303283
C       -0.0000000662     0.0000010100     -0.5867788183
H       1.3304051878     -0.9705918029     0.9916373930
H       1.2838644798     0.7919125586     0.8143227446
H       2.1638049625     0.0532012453     -0.3594017797
C       -1.2662965962     -0.0479330068     0.2599302937
H       0.0185607335     -0.8736952716     -1.2425781034
H       -0.0185608287     0.8736933877     -1.2425754329
H       -1.2838645903     -0.7919130105     0.8143237609
H       -2.1638043590     -0.0531994236     -0.3594012658
H       -1.3304053782     0.9705904838     0.9916358986

    This sampling was finished on:   2020-07-02 17:54:42
=------------------------------------------------------------------------------=
Sampling finished.
=------------------------------------------------------------------------------=