11
# Point -3 Energy = 0.06925169000000153
C       1.3056180421     0.0000023642     0.2197456597
C       0.0118481192     0.0000022741     -0.5874965906
H       1.3483515339     -0.9427569981     0.9212560806
H       1.3483514458     0.9427526449     0.9212502270
H       2.0334485171     0.0000017707     -0.2957618667
C       -1.2275999939     0.0000022780     0.2977890032
H       0.0000988914     -0.8738487342     -1.2432482523
H       0.0000988891     0.8738467815     -1.2432442151
H       -1.2615163229     -0.8175377284     0.8862082659
H       -2.2971830383     0.0000022299     -0.4216562028
H       -1.2615161441     0.8175337835     0.8862029099
11
# Point -2 Energy = 0.02943585000001292
C       1.2929493837     0.0000015829     0.2331548514
C       0.0078989452     0.0000015170     -0.5873364187
H       1.3340677587     -0.9221788308     0.9154602577
H       1.3340676890     0.9221759386     0.9154563631
H       2.0770139835     0.0000011596     -0.3174612586
C       -1.2409298983     0.0000015071     0.2851932956
H       0.0000649934     -0.8738623306     -1.2431276100
H       0.0000649481     0.8738610291     -1.2431249205
H       -1.2761790099     -0.8386915334     0.8921095518
H       -2.2528399498     0.0000017316     -0.4013850678
H       -1.2761789043     0.8386888949     0.8921059750
11
# Point -1 Energy = 0.007165789999973526
C       1.2801440623     0.0000007950     0.2464071651
C       0.0039495200     0.0000007607     -0.5872403110
H       1.3197091592     -0.9014804732     0.9096516579
H       1.3197091222     0.9014790319     0.9096497149
H       2.1207370707     0.0000005673     -0.3388715173
C       -1.2541321150     0.0000007423     0.2724292408
H       0.0000322065     -0.8738704106     -1.2430550126
H       0.0000321416     0.8738697622     -1.2430536706
H       -1.2907651551     -0.8597345001     0.8979806383
H       -2.2086509606     0.0000012136     -0.3808317337
H       -1.2907651123     0.8597331772     0.8979788471
11
# Point 0 Energy = 0
C       1.2672042126     0.0000000000     0.2594997522
C       0.0000000000     0.0000000000     -0.5872081259
H       1.3052750505     -0.8806643351     0.9038259677
H       1.3052750505     0.8806643351     0.9038259677
H       2.1646165232     0.0000000000     -0.3599948239
C       -1.2672042126     -0.0000000181     0.2594997522
H       0.0000000000     -0.8738729764     -1.2430302913
H       -0.0000000606     0.8738729764     -1.2430302913
H       -1.3052750505     -0.8806643351     0.9038259677
H       -2.1646165232     0.0000006841     -0.3599948239
H       -1.3052750505     0.8806643351     0.9038259677
11
# Point 1 Energy = 0.007165760000006571
C       1.2541320362     -0.0000008005     0.2724295780
C       -0.0039495204     -0.0000007605     -0.5872400398
H       1.2907650658     -0.8597327152     0.8979787359
H       1.2907651152     0.8597341492     0.8979806710
H       2.2086519514     -0.0000005502     -0.3808321791
C       -1.2801439841     -0.0000007727     0.2464075064
H       -0.0000322184     -0.8738700256     -1.2430536209
H       -0.0000322500     0.8738706749     -1.2430549622
H       -1.3197090833     -0.9014786852     0.9096497462
H       -2.1207380596     0.0000001356     -0.3388719615
H       -1.3197091134     0.9014800162     0.9096515448
11
# Point 2 Energy = 0.02943555999998182
C       1.2409297402     -0.0000016052     0.2851939660
C       -0.0078989469     -0.0000015161     -0.5873358762
H       1.2761788103     -0.8386879659     0.8921057546
H       1.2761789292     0.8386908274     0.8921096188
H       2.2528419332     -0.0000010910     -0.4013859600
C       -1.2929492279     -0.0000015201     0.2331555383
H       -0.0000650403     -0.8738615552     -1.2431248217
H       -0.0000650189     0.8738628600     -1.2431275085
H       -1.3340676120     -0.9221752496     0.9154564241
H       -2.0770159595     -0.0000004402     -0.3174621461
H       -1.3340676679     0.9221779220     0.9154600295
11
# Point 3 Energy = 0.06925065000000075
C       1.2275997561     -0.0000024158     0.2977900030
C       -0.0118481230     -0.0000022721     -0.5874957766
H       1.2615160015     -0.8175323827     0.8862025823
H       1.2615162002     0.8175366634     0.8862083686
H       2.2971860159     -0.0000016140     -0.4216575433
C       -1.3056178097     -0.0000022607     0.2197466966
H       -0.0000989956     -0.8738475694     -1.2432440677
H       -0.0000988979     0.8738495294     -1.2432480989
H       -1.3483513313     -0.9427516181     0.9212503163
H       -2.0334514781     -0.0000010368     -0.2957631969
H       -1.3483513986     0.9427556428     0.9212557355
