11
# Point -5 Energy = 0.06899938999998767
C       1.2462257752     0.1296110150     0.2505721067
C       -0.0000000859     -0.1408869533     -0.5839777705
H       1.1351909216     -0.8164728840     0.7972652586
H       1.4311207342     0.9339836860     0.9555226689
H       2.1275345803     -0.1485114621     -0.3282754522
C       -1.2462258228     0.1296112904     0.2505719521
H       0.0000004523     -0.9014628218     -1.3651455175
H       -0.0000004246     0.8451288365     -1.0600006495
H       -1.1351913989     -0.8164726689     0.7972652087
H       -2.1275347061     -0.1485114686     -0.3282753399
H       -1.4311200858     0.9339840968     0.9555225535
11
# Point -4 Energy = 0.044333929999979205
C       1.2534644893     0.1046532077     0.2537900474
C       -0.0000000643     -0.1129860120     -0.5853649870
H       1.1692184776     -0.8296910864     0.8224316377
H       1.4117754410     0.9238618941     0.9500576821
H       2.1405504798     -0.1199343519     -0.3393042585
C       -1.2534645188     0.1046534481     0.2537899336
H       0.0000003621     -0.8961231786     -1.3445788111
H       -0.0000003650     0.8513296302     -1.1029612345
H       -1.1692188432     -0.8296908721     0.8224316185
H       -2.1405505881     -0.1199342511     -0.3393041920
H       -1.4117749310     0.9238622379     0.9500575828
11
# Point -3 Energy = 0.02503081999999779
C       1.2593437898     0.0790479620     0.2562904591
C       -0.0000000450     -0.0848545812     -0.5862712863
H       1.2039585321     -0.8429385036     0.8457815186
H       1.3894154012     0.9136344333     0.9420754015
H       2.1509442545     -0.0906133737     -0.3481810354
C       -1.2593438057     0.0790481622     0.2562903819
H       0.0000002757     -0.8905911016     -1.3221444280
H       -0.0000003022     0.8571844203     -1.1424718311
H       -1.2039587918     -0.8429383030     0.8457815217
H       -2.1509443417     -0.0906131586     -0.3481810044
H       -1.3894150273     0.9136347099     0.9420753213
11
# Point -2 Energy = 0.011160140000029628
C       1.2636733665     0.0529548269     0.2580736990
C       -0.0000000280     -0.0566025760     -0.5868214448
H       1.2387012162     -0.8559706788     0.8672016169
H       1.3640468607     0.9031203898     0.9316474119
H       2.1585035565     -0.0607227926     -0.3546894104
C       -1.2636733731     0.0529549823     0.2580736536
H       0.0000001929     -0.8849910199     -1.2978100403
H       -0.0000002367     0.8628298948     -1.1787900500
H       -1.2387013753     -0.8559705038     0.8672016346
H       -2.1585036188     -0.0607224579     -0.3546894031
H       -1.3640466215     0.9031206011     0.9316473514
11
# Point -1 Energy = 0.002795700000007173
C       1.2663178176     0.0265459729     0.2591429427
C       -0.0000000130     -0.0283036159     -0.5871144613
H       1.2727088524     -0.8685881956     0.8865846204
H       1.3358701124     0.8921638233     0.9188649399
H       2.1630851704     -0.0304518932     -0.3586612272
C       -1.2663178189     0.0265460799     0.2591429233
H       0.0000001133     -0.8794050860     -1.2714904238
H       -0.0000001686     0.8683691003     -1.2122126085
H       -1.2727089151     -0.8685880574     0.8865846456
H       -2.1630852037     -0.0304514349     -0.3586612303
H       -1.3358700074     0.8921639725     0.9188648981
11
# Point 0 Energy = 0
C       1.2672042126     0.0000000000     0.2594997522
C       0.0000000000     0.0000000000     -0.5872081259
H       1.3052750505     -0.8806643351     0.9038259677
H       1.3052750505     0.8806643351     0.9038259677
H       2.1646165232     0.0000000000     -0.3599948239
C       -1.2672042126     -0.0000000181     0.2594997522
H       0.0000000000     -0.8738729764     -1.2430302913
H       -0.0000000606     0.8738729764     -1.2430302913
H       -1.3052750505     -0.8806643351     0.9038259677
H       -2.1646165232     0.0000006841     -0.3599948239
H       -1.3052750505     0.8806643351     0.9038259677
11
# Point 1 Energy = 0.002795710000015106
C       1.2663178099     -0.0265460107     0.2591428053
C       0.0000000110     0.0283037420     -0.5871144344
H       1.3358698925     -0.8921638385     0.9188648662
H       1.2727088177     0.8685880604     0.8865846345
H       2.1630853524     0.0304517868     -0.3586610883
C       -1.2663178125     -0.0265460078     0.2591428181
H       -0.0000000368     -0.8683689993     -1.2122125373
H       -0.0000000239     0.8794051372     -1.2714904826
H       -1.3358697725     -0.8921638034     0.9188648852
H       -2.1630853148     0.0304525003     -0.3586610707
H       -1.2727089836     0.8685880989     0.8865846228
11
# Point 2 Energy = 0.01116015000000914
C       1.2636733518     -0.0529548480     0.2580734262
C       0.0000000200     0.0566026945     -0.5868213902
H       1.3640465051     -0.9031203396     0.9316473027
H       1.2387010638     0.8559704936     0.8672016086
H       2.1585039181     0.0607226696     -0.3546891379
C       -1.2636733610     -0.0529548990     0.2580734453
H       -0.0000001087     -0.8628297745     -1.1787899811
H       0.0000000526     0.8849910408     -1.2978100851
H       -1.3640462964     -0.9031203688     0.9316473095
H       -2.1585038386     0.0607235123     -0.3546890871
H       -1.2387013673     0.8559704851     0.8672016079
11
# Point 3 Energy = 0.025030839999999444
C       1.2593437689     -0.0790479561     0.2562900558
C       0.0000000269     0.0848546873     -0.5862712028
H       1.3894149049     -0.9136343175     0.9420752554
H       1.2039582660     0.8429382776     0.8457814942
H       2.1509447904     0.0906132246     -0.3481806385
C       -1.2593437888     -0.0790480609     0.2562900744
H       -0.0000001787     -0.8571842843     -1.1424717708
H       0.0000001323     0.8905910885     -1.3221444545
H       -1.3894146084     -0.9136344178     0.9420752450
H       -2.1509446645     0.0906141960     -0.3481805400
H       -1.2039587096     0.8429382286     0.8457815007
11
# Point 4 Energy = 0.044333929999979205
C       1.2534644629     -0.1046531655     0.2537895203
C       0.0000000317     0.1129861020     -0.5853648732
H       1.4117747993     -0.9238617149     0.9500574999
H       1.1692180991     0.8296908299     0.8224316033
H       2.1405511829     0.1199341688     -0.3393037494
C       -1.2534644980     -0.1046533231     0.2537895320
H       -0.0000002470     -0.8513294821     -1.1029611897
H       0.0000002155     0.8961231282     -1.3445788156
H       -1.4117744153     -0.9238618913     0.9500574682
H       -2.1405510058     0.1199352664     -0.3393035894
H       -1.1692186859     0.8296907476     0.8224316126
11
# Point 5 Energy = 0.06899937999999395
C       1.2462257435     -0.1296109287     0.2505714633
C       0.0000000344     0.1408870248     -0.5839776257
H       1.4311199421     -0.9339834470     0.9555224533
H       1.1351904290     0.8164726075     0.7972652200
H       2.1275354430     0.1485112387     -0.3282748436
C       -1.2462257985     -0.1296111369     0.2505714621
H       -0.0000003136     -0.8451286796     -1.0600006284
H       0.0000003020     0.9014627316     -1.3651454978
H       -1.4311194702     -0.9339837022     0.9555223985
H       -2.1275352100     0.1485124581     -0.3282746097
H       -1.1351911624     0.8164724998     0.7972652268
