11
# Point -4 Energy = 0.05498785999999711
C       1.2661493804     -0.0516832576     0.2532456238
C       0.0000012118     -0.0000006335     -0.5934636358
H       1.0879932713     -0.8624678477     0.9500599432
H       1.5233642190     0.8433894327     0.8384836514
H       2.1429128771     0.2410817319     -0.3252831280
C       -1.2661474000     0.0516815057     0.2532478682
H       -0.0525395725     -0.8723218246     -1.2492467068
H       0.0525366580     0.8723210155     -1.2492464799
H       -1.5233610583     -0.8433987931     0.8384741367
H       -2.1429163220     -0.2410777740     -0.3252759975
H       -1.0879933254     0.8624771108     0.9500497435
11
# Point -3 Energy = 0.03080470000000446
C       1.2666011442     -0.0390858853     0.2559269119
C       0.0000008898     -0.0000003995     -0.5907816810
H       1.1422419721     -0.8724532387     0.9408076265
H       1.4689824317     0.8577197465     0.8560742443
H       2.1526819739     0.1811025618     -0.3403108914
C       -1.2665997036     0.0390847121     0.2559285801
H       -0.0396344403     -0.8729912340     -1.2465807262
H       0.0396322044     0.8729906964     -1.2465805868
H       -1.4689800546     -0.8577267126     0.8560670972
H       -2.1526843695     -0.1810995730     -0.3403053841
H       -1.1422421086     0.8724599924     0.9407998285
11
# Point -2 Energy = 0.013663989999983528
C       1.2669330899     -0.0262137409     0.2578959482
C       0.0000005858     -0.0000002060     -0.5888121941
H       1.1964666010     -0.8787591274     0.9299102891
H       1.4144493464     0.8687337893     0.8729475565
H       2.1593931982     0.1208909761     -0.3511995540
C       -1.2669321522     0.0262130555     0.2578970456
H       -0.0265341314     -0.8734785747     -1.2446230731
H       0.0265326108     0.8734782714     -1.2446230145
H       -1.4144477200     -0.8687384040     0.8729427848
H       -2.1593946922     -0.1208888866     -0.3511957759
H       -1.1964667967     0.8787635135     0.9299050063
11
# Point -1 Energy = 0.0034153400000036527
C       1.2671360281     -0.0131539991     0.2590966024
C       0.0000002907     -0.0000000515     -0.5876113022
H       1.2508008518     -0.8814723907     0.9175351307
H       1.3598506010     0.8763985226     0.8889174035
H       2.1633220372     0.0604958697     -0.3577898011
C       -1.2671355687     0.0131537094     0.2590971421
H       -0.0133005391     -0.8737744312     -1.2434298763
H       0.0132997478     0.8737743321     -1.2434298876
H       -1.3598497215     -0.8764008137     0.8889150111
H       -2.1633227408     -0.0604946156     -0.3577878607
H       -1.2508010473     0.8814745339     0.9175324571
11
# Point 0 Energy = 0
C       1.2672042126     0.0000000000     0.2594997522
C       0.0000000000     0.0000000000     -0.5872081259
H       1.3052750505     -0.8806643351     0.9038259677
H       1.3052750505     0.8806643351     0.9038259677
H       2.1646165232     0.0000000000     -0.3599948239
C       -1.2672042126     -0.0000000181     0.2594997522
H       0.0000000000     -0.8738729764     -1.2430302913
H       -0.0000000606     0.8738729764     -1.2430302913
H       -1.3052750505     -0.8806643351     0.9038259677
H       -2.1646165232     0.0000006841     -0.3599948239
H       -1.3052750505     0.8806643351     0.9038259677
11
# Point 1 Energy = 0.0034153699999990295
C       1.2671357184     0.0131539528     0.2590970974
C       -0.0000002888     0.0000001408     -0.5876109640
H       1.3598496291     -0.8763994084     0.8889167676
H       1.2508000031     0.8814730833     0.9175345971
H       2.1633218103     -0.0604959152     -0.3577891890
C       -1.2671361611     -0.0131537343     0.2590965789
H       0.0133006179     -0.8737721329     -1.2434325163
H       -0.0132999544     0.8737723606     -1.2434326246
H       -1.2508006669     -0.8814707782     0.9175369467
H       -2.1633211761     0.0604957020     -0.3577912188
H       -1.3598495921     0.8763973955     0.8889195440
11
# Point 2 Energy = 0.013664020000007326
C       1.2669324663     0.0262136852     0.2578969380
C       -0.0000005771     0.0000001771     -0.5888115150
H       1.4144475509     -0.8687355164     0.8729463075
H       1.1964647677     0.8787605476     0.9299092000
H       2.1593927642     -0.1208908568     -0.3511983350
C       -1.2669333356     -0.0262133592     0.2578959248
H       0.0265342257     -0.8734739767     -1.2446283519
H       -0.0265328504     0.8734743256     -1.2446284841
H       -1.1964662384     -0.8787559602     0.9299138966
H       -2.1593915498     0.1208900289     -0.3512024679
H       -1.4144472843     0.8687315708     0.8729519059
11
# Point 3 Energy = 0.030804710000012392
C       1.2666001960     0.0390858127     0.2559283967
C       -0.0000008671     0.0000001720     -0.5907806548
H       1.4689798686     -0.8577223446     0.8560723646
H       1.1422391206     0.8724553393     0.9408060041
H       2.1526813723     -0.1811021692     -0.3403090729
C       -1.2666014778     -0.0390854800     0.2559269147
H       0.0396345644     -0.8729843331     -1.2465886407
H       -0.0396324957     0.8729847715     -1.2465887792
H       -1.1422414157     -0.8724484751     0.9408130187
H       -2.1526796138     0.1811008229     -0.3403153682
H       -1.4689793126     0.8577165496     0.8560808360
11
# Point 4 Energy = 0.05498779999999215
C       1.2661480858     0.0516831583     0.2532476036
C       -0.0000011621     0.0000001240     -0.5934622509
H       1.5233609334     -0.8433929298     0.8384811243
H       1.0879893847     0.8624705784     0.9500578141
H       2.1429121660     -0.2410809590     -0.3252807184
C       -1.2661497706     -0.0516829224     0.2532456816
H       0.0525397478     -0.8723126143     -1.2492572507
H       -0.0525370140     0.8723131057     -1.2492573776
H       -1.0879925048     -0.8624614381     0.9500671050
H       -2.1429098769     0.2410792078     -0.3252892217
H       -1.5233600498     0.8433853554     0.8384925095
