11
# Point -3 Energy = 0.05317616000000669
C       1.2555921131     -0.0000013641     0.3086164182
C       0.0000001232     -0.0000014931     -0.5497232820
H       1.2997129325     -0.8176442997     0.8965480285
H       1.2997129579     0.8176464154     0.8965510388
H       2.3095302520     -0.0000008786     -0.4283415544
C       -1.2555913093     -0.0000016468     0.3086171990
H       0.0000000479     -0.8993762013     -1.2279877992
H       -0.0000001038     0.8993775926     -1.2279905885
H       -1.2997119854     -0.8176425860     0.8965472367
H       -2.3095329289     -0.0000003871     -0.4283428445
H       -1.2997121600     0.8176455146     0.8965511662
11
# Point -2 Energy = 0.02487835999997401
C       1.2594717693     -0.0000009062     0.2922542394
C       0.0000000823     -0.0000009930     -0.5622288578
H       1.3017399770     -0.8387572360     0.8988554044
H       1.3017399767     0.8387586515     0.8988574149
H       2.2613896240     -0.0000005969     -0.4053348051
C       -1.2594712333     -0.0000011013     0.2922547638
H       0.0000000323     -0.8908899693     -1.2329939962
H       -0.0000000885     0.8908909026     -1.2329958543
H       -1.3017393484     -0.8387560990     0.8988548737
H       -2.2613914065     -0.0000000402     -0.4053356633
H       -1.3017394456     0.8387580539     0.8988574993
11
# Point -1 Energy = 0.006618939999995632
C       1.2633425148     -0.0000004517     0.2758820311
C       0.0000000412     -0.0000004964     -0.5747237778
H       1.3035938106     -0.8597645396     0.9012813739
H       1.3035938000     0.8597652499     0.9012823806
H       2.2130847574     -0.0000003024     -0.3825525533
C       -1.2633422467     -0.0000005588     0.2758822953
H       0.0000000162     -0.8823888481     -1.2380081758
H       -0.0000000741     0.8823893160     -1.2380091031
H       -1.3035934977     -0.8597639741     0.9012811072
H       -2.2130856476     0.0000003187     -0.3825529815
H       -1.3035935348     0.8597649524     0.9012824226
11
# Point 0 Energy = 0
C       1.2672042126     0.0000000000     0.2594997522
C       0.0000000000     0.0000000000     -0.5872081259
H       1.3052750505     -0.8806643351     0.9038259677
H       1.3052750505     0.8806643351     0.9038259677
H       2.1646165232     0.0000000000     -0.3599948239
C       -1.2672042126     -0.0000000181     0.2594997522
H       0.0000000000     -0.8738729764     -1.2430302913
H       -0.0000000606     0.8738729764     -1.2430302913
H       -1.3052750505     -0.8806643351     0.9038259677
H       -2.1646165232     0.0000006841     -0.3599948239
H       -1.3052750505     0.8806643351     0.9038259677
11
# Point 1 Energy = 0.007715249999989737
C       1.2710567310     0.0000004483     0.2431074442
C       -0.0000000412     0.0000004942     -0.5996818974
H       1.3067841323     -0.9014546665     0.9064893685
H       1.3067841605     0.9014539509     0.9064883584
H       2.1159853456     0.0000003135     -0.3376621597
C       -1.2710569991     0.0000005199     0.2431071760
H       -0.0000000165     -0.8653424960     -1.2480602093
H       -0.0000000479     0.8653420231     -1.2480592832
H       -1.3067844427     -0.9014552263     0.9064896379
H       -2.1159844574     0.0000010596     -0.3376617333
H       -1.3067844251     0.9014542453     0.9064883168
11
# Point 2 Energy = 0.03391752000000281
C       1.2748999383     0.0000008927     0.2267050250
C       -0.0000000824     0.0000009832     -0.6121452122
H       1.3081216450     -0.9221336516     0.9092715555
H       1.3081217134     0.9221322145     0.9092695314
H       2.0671922643     0.0000006430     -0.3155543887
C       -1.2749004745     0.0000010542     0.2267044844
H       -0.0000000334     -0.8567975500     -1.2530979195
H       -0.0000000357     0.8567965957     -1.2530960650
H       -1.3081222637     -0.9221347658     0.9092720968
H       -2.0671904899     0.0000014505     -0.3155535375
H       -1.3081222421     0.9221327996     0.9092694488
11
# Point 3 Energy = 0.08480456999998864
C       1.2787336990     0.0000013334     0.2102925337
C       -0.0000001235     0.0000014695     -0.6245980767
H       1.3092882703     -0.9426992942     0.9121727297
H       1.3092883956     0.9426971298     0.9121696886
H       2.0182376787     0.0000009849     -0.2936720721
C       -1.2787345029     0.0000015855     0.2102917164
H       -0.0000000503     -0.8482382749     -1.2581432985
H       -0.0000000241     0.8482368340     -1.2581405155
H       -1.3092891951     -0.9427009570     0.9121735456
H       -2.0182350203     0.0000018528     -0.2936707975
H       -1.3092891880     0.9426980023     0.9121695653
