11
# Point -3 Energy = 0.09884308000000885
C       1.2651160983     -0.0000000018     0.2459577100
C       -0.0000002084     0.0000000127     -0.6240712647
H       1.3040623946     -0.8740660394     0.8840653054
H       1.3040623563     0.8740660728     0.8840654017
H       2.1884574517     0.0000000267     -0.3944277452
C       -1.2651166312     -0.0000001848     0.2459579628
H       -0.0000002251     -0.6982469925     -1.1371022824
H       -0.0000003207     0.6982466511     -1.1371019877
H       -1.3040625852     -0.8740635770     0.8840635999
H       -2.1884557224     0.0000005735     -0.3944259720
H       -1.3040626685     0.8740641248     0.8840642912
11
# Point -2 Energy = 0.03736109999999826
C       1.2658679833     -0.0000000012     0.2503940215
C       -0.0000001382     0.0000000080     -0.6118332944
H       1.3045348878     -0.8762720028     0.8905652672
H       1.3045348622     0.8762720253     0.8905653311
H       2.1805653356     0.0000000172     -0.3830302639
C       -1.2658683379     -0.0000001290     0.2503941897
H       -0.0000001507     -0.7571040848     -1.1720550334
H       -0.0000002370     0.7571038575     -1.1720548354
H       -1.3045350145     -0.8762703613     0.8905641292
H       -2.1805641817     0.0000006102     -0.3830290828
H       -1.3045350695     0.8762707269     0.8905645901
11
# Point -1 Energy = 0.008019749999988335
C       1.2665638608     -0.0000000005     0.2549080857
C       -0.0000000688     0.0000000039     -0.5995454722
H       1.3049389169     -0.8784714585     0.8971521868
H       1.3049389043     0.8784714700     0.8971522185
H       2.1726183407     0.0000000081     -0.3715523815
C       -1.2665640378     -0.0000000735     0.2549081696
H       -0.0000000757     -0.8156467566     -1.2073647806
H       -0.0000001502     0.8156466432     -1.2073646809
H       -1.3049389801     -0.8784706380     0.8971516172
H       -2.1726177632     0.0000006470     -0.3715517914
H       -1.3049390075     0.8784708210     0.8971518477
11
# Point 0 Energy = 0
C       1.2672042126     0.0000000000     0.2594997522
C       0.0000000000     0.0000000000     -0.5872081259
H       1.3052750505     -0.8806643351     0.9038259677
H       1.3052750505     0.8806643351     0.9038259677
H       2.1646165232     0.0000000000     -0.3599948239
C       -1.2672042126     -0.0000000181     0.2594997522
H       0.0000000000     -0.8738729764     -1.2430302913
H       -0.0000000606     0.8738729764     -1.2430302913
H       -1.3052750505     -0.8806643351     0.9038259677
H       -2.1646165232     0.0000006841     -0.3599948239
H       -1.3052750505     0.8806643351     0.9038259677
11
# Point 1 Energy = 0.006036699999995676
C       1.2677894703     0.0000000006     0.2641692549
C       0.0000000680     -0.0000000033     -0.5748212833
H       1.3055437307     -0.8828505652     0.9105868947
H       1.3055437434     0.8828505536     0.9105868633
H       2.1565599352     -0.0000000077     -0.3483578658
C       -1.2677892940     0.0000000370     0.2641691714
H       0.0000000764     -0.9317789869     -1.2790520802
H       0.0000000320     0.9317791001     -1.2790521815
H       -1.3055436678     -0.8828513856     0.9105874653
H       -2.1565605138     0.0000007213     -0.3483584548
H       -1.3055436411     0.8828512021     0.9105872348
11
# Point 2 Energy = 0.021221929999995837
C       1.2683201236     0.0000000014     0.2689164657
C       0.0000001353     -0.0000000058     -0.5623852250
H       1.3057455148     -0.8850300817     0.9174348864
H       1.3057455411     0.8850300587     0.9174348239
H       2.1484486470     -0.0000000156     -0.3366422052
C       -1.2683197717     0.0000000918     0.2689162990
H       0.0000001535     -0.9893625853     -1.3154290178
H       0.0000001277     0.9893628118     -1.3154292221
H       -1.3057453896     -0.8850317228     0.9174360286
H       -2.1484498054     0.0000007584     -0.3366433822
H       -1.3057453371     0.8850313550     0.9174355677
11
# Point 3 Energy = 0.0422435499999807
C       1.2687965893     0.0000000023     0.2737415746
C       0.0000002019     -0.0000000078     -0.5499000287
H       1.3058808547     -0.8872028135     0.9243701861
H       1.3058808945     0.8872027789     0.9243700930
H       2.1402827029     -0.0000000230     -0.3248481551
C       -1.2687960624     0.0000001464     0.2737413252
H       0.0000002314     -1.0466201665     -1.3521614296
H       0.0000002264     1.0466205063     -1.3521617383
H       -1.3058806673     -0.8872052750     0.9243719009
H       -2.1402844422     0.0000007956     -0.3248499189
H       -1.3058805897     0.8872047223     0.9243712098
11
# Point 4 Energy = 0.06686993999998947
C       1.2692193103     0.0000000033     0.2786446046
C       0.0000002677     -0.0000000093     -0.5373658873
H       1.3059502547     -0.8893686893     0.9313928674
H       1.3059503083     0.8893686431     0.9313927441
H       2.1320621563     -0.0000000300     -0.3129762225
C       -1.2692186093     0.0000002006     0.2786442728
H       0.0000003102     -1.1035488236     -1.3892488823
H       0.0000003281     1.1035492767     -1.3892492967
H       -1.3059500055     -0.8893719713     0.9313951560
H       -2.1320644778     0.0000008328     -0.3129785720
H       -1.3059499035     0.8893712331     0.9313942347
