11
# Point -7 Energy = 0.013182699999987335
C       1.2662997603     -0.0916199364     0.2314528963
C       -0.0000002936     0.3141618158     -0.5132248758
H       0.9717323982     -0.5566824344     1.1759128243
H       1.9225947541     0.7466003592     0.4680120348
H       1.8456046928     -0.8242122226     -0.3314295187
C       -1.2662991097     -0.0916246509     0.2314527492
H       0.0000007037     -0.2369603455     -1.4563032552
H       -0.0000024250     1.3746500960     -0.7773185895
H       -0.9717327201     -0.5567097838     1.1759015584
H       -1.8456134119     -0.8241995973     -0.3314428059
H       -1.9225844093     0.7465973660     0.4680320010
11
# Point -6 Energy = 0.012122449999978357
C       1.2665390377     -0.0786123517     0.2388832534
C       -0.0000002067     0.2726279115     -0.5326272254
H       0.9827131028     -0.6195706522     1.1452234774
H       1.8415355833     0.7964096717     0.5445351357
H       1.9236523251     -0.7268061112     -0.3417795308
C       -1.2665384876     -0.0786164800     0.2388832181
H       0.0000007276     -0.3315487662     -1.4426778687
H       -0.0000020678     1.3160995710     -0.8573711211
H       -0.9827149615     -0.6195933094     1.1452128879
H       -1.9236591135     -0.7267941834     -0.3417893639
H       -1.8415260000     0.7964053660     0.5445521563
11
# Point -5 Energy = 0.010137869999994109
C       1.2667418119     -0.0655428527     0.2451805586
C       -0.0000001356     0.2295677293     -0.5491710890
H       1.0072789957     -0.6791690579     1.1114228322
H       1.7547881312     0.8369745875     0.6158445661
H       1.9933300749     -0.6205882274     -0.3490554508
C       -1.2667413721     -0.0655463551     0.2451806035
H       0.0000007117     -0.4255459370     -1.4233203235
H       -0.0000017141     1.2526458299     -0.9332462449
H       -1.0072818326     -0.6791871327     1.1114133154
H       -1.9933349954     -0.6205774370     -0.3490623480
H       -1.7547797361     0.8369695192     0.6158585994
11
# Point -4 Energy = 0.0075357799999977715
C       1.2669079429     -0.0524415488     0.2503361614
C       -0.0000000799     0.1852207846     -0.5627940818
H       1.0449076957     -0.7340741414     1.0749056385
H       1.6642682012     0.8674516204     0.6821130754
H       2.0528897953     -0.5065589433     -0.3539255719
C       -1.2669076156     -0.0524443900     0.2503362558
H       0.0000006554     -0.5185865132     -1.3982910950
H       -0.0000013665     1.1846249432     -1.0047269721
H       -1.0449109447     -0.7340878362     1.0748975346
H       -2.0528930275     -0.5065496835     -0.3539300565
H       -1.6642613168     0.8674463741     0.6821241305
11
# Point -3 Energy = 0.0047572699999847146
C       1.2670373189     -0.0393285897     0.2543461869
C       -0.0000000391     0.1398343200     -0.5734444018
H       1.0947673880     -0.7829059277     1.0358997567
H       1.5719917315     0.8872438285     0.7436390719
H       2.1008376534     -0.3859599945     -0.3570015124
C       -1.2670370983     -0.0393307389     0.2543463011
H       0.0000005585     -0.6103052486     -1.3676608547
H       -0.0000010279     1.1123821401     -1.0716159779
H       -1.0947705021     -0.7829155355     1.0358933550
H       -2.1008394783     -0.3859525980     -0.3570041061
H       -1.5719865654     0.8872390103     0.7436472001
11
# Point -2 Energy = 0.0022979900000024145
C       1.2671298557     -0.0262153336     0.2572097285
C       -0.0000000125     0.0936621411     -0.5810812231
H       1.1557385402     -0.8243637838     0.9944678326
H       1.4800271896     0.8960247453     0.8008092561
H       2.1359713584     -0.2602401149     -0.3588009847
C       -1.2671297291     -0.0262167654     0.2572098333
H       0.0000004221     -0.7003365771     -1.3315106737
H       -0.0000007013     1.0362699106     -1.1337344670
H       -1.1557410158     -0.8243696827     0.9944633780
H       -2.1359721389     -0.2602348413     -0.3588022042
H       -1.4800238288     0.8960209679     0.8008145431
11
# Point -1 Energy = 0.0006331700000004048
C       1.2671854966     -0.0131060466     0.2589273158
C       0.0000000003     0.0469632141     -0.5856750705
H       1.2264423215     -0.8572793579     0.9505184432
H       1.3904464181     0.8937511617     0.8540580760
H       2.1574101085     -0.1310116425     -0.3597169926
C       -1.2671854452     -0.0131067414     0.2589273826
H       0.0000002475     -0.7883145206     -1.2899325607
H       -0.0000003902     0.9566462418     -1.1909210047
H       -1.2264437209     -0.8572820023     0.9505161420
H       -2.1574102684     -0.1310086693     -0.3597173488
H       -1.3904448284     0.8937490290     0.8540606366
11
# Point 0 Energy = 0
C       1.2672042126     0.0000000000     0.2594997522
C       0.0000000000     0.0000000000     -0.5872081259
H       1.3052750505     -0.8806643351     0.9038259677
H       1.3052750505     0.8806643351     0.9038259677
H       2.1646165232     0.0000000000     -0.3599948239
C       -1.2672042126     -0.0000000181     0.2594997522
H       0.0000000000     -0.8738729764     -1.2430302913
H       -0.0000000606     0.8738729764     -1.2430302913
H       -1.3052750505     -0.8806643351     0.9038259677
H       -2.1646165232     0.0000006841     -0.3599948239
H       -1.3052750505     0.8806643351     0.9038259677
11
# Point 1 Energy = 0.0006331700000004048
C       1.2671859990     0.0131059820     0.2589273869
C       -0.0000000132     -0.0469630676     -0.5856744276
H       1.3904476459     -0.8937512396     0.8540579670
H       1.2264438415     0.8572793596     0.9505184851
H       2.1574100042     0.1310114783     -0.3597178388
C       -1.2671860232     0.0131067949     0.2589272924
H       -0.0000002067     -0.9566461340     -1.1909203269
H       0.0000001727     0.7883145837     -1.2899320367
H       -1.3904459333     -0.8937489828     0.8540604644
H       -2.1574103179     0.1310096782     -0.3597179865
H       -1.2264452297     0.8572822134     0.9505160395
11
# Point 2 Energy = 0.002297979999980271
C       1.2671308634     0.0262152054     0.2572098687
C       -0.0000000390     -0.0936619411     -0.5810799435
H       1.4800295947     -0.8960247685     0.8008090066
H       1.1557415728     0.8243639631     0.9944679305
H       2.1359711800     0.2602397622     -0.3588026534
C       -1.2671308823     0.0262167759     0.2572096530
H       -0.0000004811     -1.0362697548     -1.1337331631
H       0.0000004173     0.7003366366     -1.3315095804
H       -1.4800260561     -0.8960209510     0.8008140953
H       -2.1359722693     0.2602356737     -0.3588034528
H       -1.1557439609     0.8243700644     0.9944632582
11
# Point 3 Energy = 0.004757230000009827
C       1.2670388374     0.0393283571     0.2543463933
C       -0.0000000773     -0.1398340306     -0.5734424981
H       1.5719951549     -0.8872437691     0.7436386097
H       1.0947719776     0.7829063957     1.0358999518
H       2.1008374601     0.3859593402     -0.3570039566
C       -1.2670388214     0.0393306790     0.2543460297
H       -0.0000007827     -1.1123819145     -1.0716140348
H       0.0000006332     0.6103053119     -1.3676592180
H       -1.5719897649     -0.8872390149     0.7436463828
H       -2.1008397509     0.3859531479     -0.3570059163
H       -1.0947749266     0.7829161633     1.0358932755
11
# Point 4 Energy = 0.007535699999976941
C       1.2669099803     0.0524411737     0.2503364292
C       -0.0000001281     -0.1852203699     -0.5627915726
H       1.6642724726     -0.8674514791     0.6821123354
H       1.0449138466     0.7340750151     1.0749059542
H       2.0528896724     0.5065578917     -0.3539287257
C       -1.2669099009     0.0524442342     0.2503358916
H       -0.0000011081     -1.1846246221     -1.0047243792
H       0.0000008175     0.5185865834     -1.3982889436
H       -1.6642653254     -0.8674464147     0.6821228577
H       -2.0528935316     0.5065498619     -0.3539323599
H       -1.0449168560     0.7340887919     1.0748975317
11
# Point 5 Energy = 0.010137729999996736
C       1.2667443784     0.0655423001     0.2451808810
C       -0.0000001915     -0.2295671530     -0.5491679987
H       1.7547930780     -0.8369743935     0.6158434966
H       1.0072866710     0.6791704521     1.1114232732
H       1.9933301300     0.6205867063     -0.3490592353
C       -1.2667442098     0.0655460803     0.2451801441
H       -0.0000014540     -1.2526453833     -0.9332429931
H       0.0000009676     0.4255460131     -1.4233176886
H       -1.7547843850     -0.8369696320     0.6158568001
H       -1.9933358448     0.6205771773     -0.3490650635
H       -1.0072892004     0.6791884986     1.1114134031
11
# Point 6 Energy = 0.012122259999998164
C       1.2665421455     0.0786115906     0.2388836209
C       -0.0000002680     -0.2726271368     -0.5326235836
H       1.8415410390     -0.7964094803     0.5445337028
H       0.9827222246     0.6195726713     1.1452240315
H       1.9236526826     0.7268040754     -0.3417838601
C       -1.2665418659     0.0786160659     0.2388826601
H       -0.0000018170     -1.3160989635     -0.8573672029
H       0.0000010813     0.3315488433     -1.4426747832
H       -1.8415311221     -0.7964056072     0.5445497802
H       -1.9236604424     0.7267934453     -0.3417924052
H       -0.9827237183     0.6195951620     1.1452130585
11
# Point 7 Energy = 0.01318246000001011
C       1.2663034229     0.0916189400     0.2314532963
C       -0.0000003578     -0.3141608046     -0.5132207177
H       1.9226005669     -0.7466002485     0.4680102262
H       0.9717428501     0.5566851650     1.1759134648
H       1.8456054884     0.8242096566     -0.3314343063
C       -1.2663030155     0.0916240802     0.2314520881
H       -0.0000021940     -1.3746492857     -0.7773139993
H       0.0000011569     0.2369604149     -1.4562997523
H       -1.9225898468     -0.7465978091     0.4680290231
H       -1.8456153695     0.8241983696     -0.3314460894
H       -0.9717427621     0.5567121877     1.1759017855

    This sampling was finished on:   2020-07-02 17:54:42
=------------------------------------------------------------------------------=
Sampling finished.
=------------------------------------------------------------------------------=