11
# Point -3 Energy = 0.06900532000000226
C       1.2669621743     -0.0067751713     0.2590525801
C       0.0000000055     0.0420058577     -0.5866114696
H       1.3035629211     -0.8333015354     0.8464919231
H       1.3066443970     0.9267124791     0.9617069182
H       2.1643498077     0.0110334607     -0.3602216946
C       -1.2669621668     -0.0067746170     0.2590526342
H       -0.0000000736     -0.9919458071     -1.3717650709
H       -0.0000000109     0.7546021192     -1.1146377997
H       -1.3035631055     -0.8333022434     0.8464927910
H       -2.1643498333     0.0110346024     -0.3602216502
H       -1.3066441762     0.9267115212     0.9617058573
11
# Point -2 Energy = 0.029156000000000404
C       1.2670966036     -0.0045200260     0.2593010132
C       0.0000000020     0.0280041472     -0.5869430105
H       1.3041768750     -0.8492366744     0.8655409177
H       1.3062206176     0.9115078261     0.9423539498
H       2.1644979780     0.0073532128     -0.3600955968
C       -1.2670965980     -0.0045196374     0.2593010487
H       -0.0000000341     -0.9527131610     -1.3288274636
H       -0.0000000380     0.7945007081     -1.1573850173
H       -1.3041769894     -0.8492371143     0.8655415065
H       -2.1644979959     0.0073541692     -0.3600955661
H       -1.3062204813     0.9115072158     0.9423532371
11
# Point -1 Energy = 0.0070710199999979295
C       1.2671773146     -0.0022609833     0.2594500882
C       0.0000000001     0.0140021400     -0.5871418369
H       1.3047465918     -0.8650239679     0.8846526164
H       1.3057653359     0.8961586799     0.9230600753
H       2.1645868923     0.0036758731     -0.3600199968
C       -1.2671773115     -0.0022607609     0.2594501058
H       0.0000000028     -0.9133571016     -1.2859135931
H       -0.0000000671     0.8342558649     -1.2001850916
H       -1.3047466349     -0.8650241414     0.8846529245
H       -2.1645869017     0.0036766439     -0.3600199807
H       -1.3057652831     0.8961584194     0.9230597079
11
# Point 0 Energy = 0
C       1.2672042126     0.0000000000     0.2594997522
C       0.0000000000     0.0000000000     -0.5872081259
H       1.3052750505     -0.8806643351     0.9038259677
H       1.3052750505     0.8806643351     0.9038259677
H       2.1646165232     0.0000000000     -0.3599948239
C       -1.2672042126     -0.0000000181     0.2594997522
H       0.0000000000     -0.8738729764     -1.2430302913
H       -0.0000000606     0.8738729764     -1.2430302913
H       -1.3052750505     -0.8806643351     0.9038259677
H       -2.1646165232     0.0000006841     -0.3599948239
H       -1.3052750505     0.8806643351     0.9038259677
11
# Point 1 Energy = 0.007071029999977441
C       1.2671773125     0.0022609400     0.2594500665
C       0.0000000015     -0.0140020118     -0.5871418962
H       1.3057652377     -0.8961587523     0.9230600045
H       1.3047466723     0.8650238848     0.8846526291
H       2.1645868931     -0.0036759736     -0.3600200180
C       -1.2671773162     0.0022608286     0.2594500496
H       0.0000000685     -0.8342555704     -1.2001849177
H       -0.0000001300     0.9133569635     -1.2859135524
H       -1.3057651338     -0.8961583979     0.9230597460
H       -2.1645868829     -0.0036755749     -0.3600200349
H       -1.3047467835     0.8650243300     0.8846529424
11
# Point 2 Energy = 0.0291560700000133
C       1.2670965996     0.0045199828     0.2593009695
C       0.0000000046     -0.0280040206     -0.5869431290
H       1.3062205110     -0.9115078930     0.9423538496
H       1.3041769468     0.8492365860     0.8655409009
H       2.1644979795     -0.0073533133     -0.3600956398
C       -1.2670966073     0.0045197041     0.2593009368
H       0.0000000969     -0.7945001966     -1.1573847391
H       -0.0000001644     0.9527128073     -1.3288273127
H       -1.3062203308     -0.9115072770     0.9423533060
H       -2.1644979584     -0.0073531011     -0.3600956738
H       -1.3041771380     0.8492373873     0.8655415505
11
# Point 3 Energy = 0.06900557000000163
C       1.2669621683     0.0067751284     0.2590525142
C       0.0000000092     -0.0420057335     -0.5866116474
H       1.3066442819     -0.9267125406     0.9617067884
H       1.3035629843     0.8333014417     0.8464918770
H       2.1643498098     -0.0110335611     -0.3602217595
C       -1.2669621806     0.0067746819     0.2590524666
H       0.0000001228     -0.7546013903     -1.1146374187
H       -0.0000002008     0.9919452381     -1.3717648081
H       -1.3066440240     -0.9267116645     0.9617059583
H       -2.1643497771     -0.0110335356     -0.3602218114
H       -1.3035632545     0.8333026014     0.8464928597
