11
# Point -4 Energy = 0.05513415000001487
C       1.2200956210     -0.0000030530     0.3050752622
C       -0.0482616570     -0.0000013989     -0.5807468470
H       1.3145679052     -1.0089985976     0.6989207742
H       1.3145810490     1.0089933834     0.6989168400
H       2.2062605581     0.0000115539     -0.1792477253
C       -1.3139744921     0.0000018293     0.2261356753
H       0.0373347811     -0.8721747500     -1.2332378400
H       0.0373348092     0.8721728240     -1.2332365035
H       -1.3315292377     -0.6931715932     1.0755372414
H       -2.1048873145     -0.0000038149     -0.5126097188
H       -1.3315220829     0.6931742829     1.0755378603
11
# Point -3 Energy = 0.03092276999998944
C       1.2316831503     -0.0000024073     0.2928272950
C       -0.0361746110     -0.0000011311     -0.5836290847
H       1.3091898221     -0.9831313324     0.7533420771
H       1.3091996131     0.9831275559     0.7533391793
H       2.1972943661     0.0000087807     -0.2269616089
C       -1.3025202470     0.0000013176     0.2329282352
H       0.0282822807     -0.8729155108     -1.2375581047
H       0.0282823331     0.8729139549     -1.2375570317
H       -1.3217200334     -0.7447930893     1.0358373188
H       -2.1218022644     -0.0000025541     -0.4773610612
H       -1.3217144702     0.7447950818     1.0358378048
11
# Point -2 Energy = 0.013722349999994776
C       1.2434489622     -0.0000016838     0.2811229173
C       -0.0240949161     -0.0000008107     -0.5856330633
H       1.3057015992     -0.9530188670     0.8055476597
H       1.3057080679     0.9530164298     0.8055457682
H       2.1874167277     0.0000059385     -0.2729657626
C       -1.2908634729     0.0000008385     0.2408471389
H       0.0190027708     -0.8734461841     -1.2406085671
H       0.0190028105     0.8734450725     -1.2406078016
H       -1.3140026310     -0.7934229457     0.9939513835
H       -2.1373211942     -0.0000013874     -0.4401063741
H       -1.3139987846     0.7934242655     0.9939517199
11
# Point -1 Energy = 0.003428850000005923
C       1.2553111544     -0.0000008843     0.2699904802
C       -0.0120388143     -0.0000004379     -0.5868163985
H       1.3043554310     -0.9188054196     0.8556940914
H       1.3043586225     0.9188042313     0.8556931688
H       2.1765462474     0.0000030227     -0.3173148863
C       -1.2790725899     0.0000003940     0.2497472407
H       0.0095480577     -0.8737655738     -1.2424271172
H       0.0095480535     0.8737649769     -1.2424267047
H       -1.3084972598     -0.8387949419     0.9499288597
H       -2.1515637008     -0.0000003071     -0.4009527464
H       -1.3084952623     0.8387956056     0.9499290311
11
# Point 0 Energy = 0
C       1.2672042126     0.0000000000     0.2594997522
C       0.0000000000     0.0000000000     -0.5872081259
H       1.3052750505     -0.8806643351     0.9038259677
H       1.3052750505     0.8806643351     0.9038259677
H       2.1646165232     0.0000000000     -0.3599948239
C       -1.2672042126     -0.0000000181     0.2594997522
H       0.0000000000     -0.8738729764     -1.2430302913
H       -0.0000000606     0.8738729764     -1.2430302913
H       -1.3052750505     -0.8806643351     0.9038259677
H       -2.1646165232     0.0000006841     -0.3599948239
H       -1.3052750505     0.8806643351     0.9038259677
11
# Point 1 Energy = 0.003428850000005923
C       1.2790724146     0.0000009533     0.2497472061
C       0.0120388122     0.0000004863     -0.5868169615
H       1.3084986555     -0.8387968989     0.9499257085
H       1.3084955089     0.8387980170     0.9499265707
H       2.1515651092     -0.0000031020     -0.4009509003
C       -1.2553109131     -0.0000003933     0.2699905391
H       -0.0095480296     -0.8737681887     -1.2424226209
H       -0.0095481663     0.8737688500     -1.2424230714
H       -1.3043569152     -0.9188069521     0.8556907346
H       -2.1765475109     0.0000016100     -0.3173127370
H       -1.3043590258     0.9188062846     0.8556905511
11
# Point 2 Energy = 0.0137223199999994
C       1.2908631861     0.0000019679     0.2408469651
C       0.0240949055     0.0000010148     -0.5856341969
H       1.3140053529     -0.7934272535     0.9939453004
H       1.3139990941     0.7934294121     0.9939469643
H       2.1373241521     -0.0000062707     -0.4401029779
C       -1.2434484157     -0.0000007249     0.2811231180
H       -0.0190026605     -0.8734514288     -1.2405995924
H       -0.0190029019     0.8734528055     -1.2406005262
H       -1.3057046731     -0.9530214826     0.8055407485
H       -2.1874191075     0.0000024784     -0.2729611500
H       -1.3057089927     0.9530201477     0.8055403661
11
# Point 3 Energy = 0.030922689999997033
C       1.3025199056     0.0000030522     0.2329278086
C       0.0361745776     0.0000016017     -0.5836308003
H       1.3217239915     -0.7448001018     1.0358285407
H       1.3217146781     0.7448032549     1.0358309363
H       2.1218069068     -0.0000095500     -0.4773564042
C       -1.2316822428     -0.0000010150     0.2928277136
H       -0.0282820451     -0.8729233839     -1.2375446561
H       -0.0282823991     0.8729255530     -1.2375461201
H       -1.3091945405     -0.9831345574     0.7533313912
H       -2.1972977164     0.0000032811     -0.2269541996
H       -1.3092011763     0.9831325312     0.7533308088
11
# Point 4 Energy = 0.055133960000006255
C       1.3139741378     0.0000042038     0.2261348792
C       0.0482615696     0.0000022481     -0.5807491525
H       1.3315343490     -0.6931816232     1.0755260327
H       1.3315220156     0.6931857340     1.0755290818
H       2.1048937649     -0.0000129503     -0.5126040805
C       -1.2200943133     -0.0000012628     0.3050759782
H       -0.0373343985     -0.8721852505     -1.2332199156
H       -0.0373348667     0.8721882938     -1.2332219540
H       -1.3145742680     -1.0090019432     0.6989060378
H       -2.2062647412     0.0000040223     -0.1792371466
H       -1.3145833100     1.0089991940     0.6989052584
