11
# Point -5 Energy = 0.06642598999999905
C       1.1873175800     -0.0000000429     0.1863899967
C       0.1349996887     0.0000000074     -0.5814905696
H       1.2284777020     -0.8906490771     0.8117417627
H       1.2284777379     0.8906489789     0.8117417768
H       2.0566104414     -0.0000000275     -0.4719679051
C       -1.3578811929     0.0000001618     0.3227931358
H       0.2958799222     -0.8680227689     -1.2252349700
H       0.2958796700     0.8680227967     -1.2252350465
H       -1.3952803687     -0.8697869528     0.9864373900
H       -2.2792008598     0.0000004686     -0.2605680962
H       -1.3952803813     0.8697871219     0.9864375441
11
# Point -4 Energy = 0.04128949999997644
C       1.2023313786     -0.0000000342     0.2017608590
C       0.1079732667     0.0000000076     -0.5835388832
H       1.2426443821     -0.8887220420     0.8308821450
H       1.2426444116     0.8887219645     0.8308821548
H       2.0776500517     -0.0000000232     -0.4485666332
C       -1.3390142776     0.0000001255     0.3109271975
H       0.2371984065     -0.8701148967     -1.2315780016
H       0.2371981926     0.8701149185     -1.2315780597
H       -1.3764038433     -0.8720353477     0.9706783260
H       -2.2558181768     0.0000005102     -0.2795025347
H       -1.3764038525     0.8720354834     0.9706784490
11
# Point -3 Energy = 0.02270115999999689
C       1.2178379422     -0.0000000256     0.2167682629
C       0.0809648357     0.0000000069     -0.5851397984
H       1.2574215487     -0.8867602779     0.8496714296
H       1.2574215716     0.8867602205     0.8496714360
H       2.0989725561     -0.0000000182     -0.4256598146
C       -1.3204864637     0.0000000894     0.2986682629
H       0.1781894635     -0.8717529219     -1.2365605107
H       0.1781892879     0.8717529381     -1.2365605521
H       -1.3579284289     -0.8742470417     0.9545413199
H       -2.2326539385     0.0000005524     -0.2988964284
H       -1.3579284352     0.8742471440     0.9545414119
11
# Point -2 Energy = 0.00992562999999791
C       1.2338280332     -0.0000000171     0.2314002109
C       0.0539699023     0.0000000055     -0.5862875130
H       1.2727975986     -0.8847635567     0.8680979442
H       1.2727976144     0.8847635188     0.8680979479
H       2.1205770649     -0.0000000127     -0.4032584454
C       -1.3023251083     0.0000000535     0.2860117049
H       0.1189309545     -0.8729288165     -1.2401460953
H       0.1189308171     0.8729288272     -1.2401461214
H       -1.3398918158     -0.8764222749     0.9380214539
H       -2.2097233017     0.0000005953     -0.3187675828
H       -1.3398918197     0.8764223436     0.9380215150
11
# Point -1 Energy = 0.002456750000007446
C       1.2502888661     -0.0000000087     0.2456466524
C       0.0269834270     0.0000000034     -0.5869777765
H       1.2887559285     -0.8827316476     0.8861519649
H       1.2887559369     0.8827316285     0.8861519666
H       2.1424602807     -0.0000000068     -0.3813693222
C       -1.2845562908     0.0000000178     0.2729553817
H       0.0595057124     -0.8736367457     -1.2423080869
H       0.0595056132     0.8736367513     -1.2423080995
H       -1.3223297149     -0.8785612868     0.9211162896
H       -2.1870401025     0.0000006387     -0.3391302712
H       -1.3223297172     0.8785613218     0.9211163199
11
# Point 0 Energy = 0
C       1.2672042126     0.0000000000     0.2594997522
C       0.0000000000     0.0000000000     -0.5872081259
H       1.3052750505     -0.8806643351     0.9038259677
H       1.3052750505     0.8806643351     0.9038259677
H       2.1646165232     0.0000000000     -0.3599948239
C       -1.2672042126     -0.0000000181     0.2594997522
H       0.0000000000     -0.8738729764     -1.2430302913
H       -0.0000000606     0.8738729764     -1.2430302913
H       -1.3052750505     -0.8806643351     0.9038259677
H       -2.1646165232     0.0000006841     -0.3599948239
H       -1.3052750505     0.8806643351     0.9038259677
11
# Point 1 Energy = 0.002456750000007446
C       1.2845563047     0.0000000086     0.2729554192
C       -0.0269834274     -0.0000000041     -0.5869778115
H       1.3223297865     -0.8785613214     0.9211163087
H       1.3223297778     0.8785613400     0.9211163076
H       2.1870401118     0.0000000072     -0.3391302630
C       -1.2502888801     -0.0000000537     0.2456466890
H       -0.0595057124     -0.8736367516     -1.2423081329
H       -0.0595057347     0.8736367462     -1.2423081219
H       -1.2887559992     -0.8827316813     0.8861519837
H       -2.1424602901     0.0000007302     -0.3813693138
H       -1.2887559975     0.8827316461     0.8861519539
11
# Point 2 Energy = 0.00992562999999791
C       1.3023251361     0.0000000170     0.2860117805
C       -0.0539699036     -0.0000000084     -0.5862875828
H       1.3398919592     -0.8764223450     0.9380214920
H       1.3398919422     0.8764223809     0.9380214908
H       2.2097233200     0.0000000144     -0.3187675667
C       -1.2338280614     -0.0000000885     0.2314002835
H       -0.1189309541     -0.8729288278     -1.2401461866
H       -0.1189309394     0.8729288176     -1.2401461667
H       -1.2727977382     -0.8847636231     0.8680979813
H       -2.1205770842     0.0000007756     -0.4032584285
H       -1.2727977371     0.8847635535     0.8680979221
11
# Point 3 Energy = 0.022701139999995235
C       1.3204865058     0.0000000253     0.2986683773
C       -0.0809648387     -0.0000000136     -0.5851399027
H       1.3579286456     -0.8742471481     0.9545413770
H       1.3579286200     0.8742472009     0.9545413764
H       2.2326539661     0.0000000220     -0.2988964048
C       -1.2178379853     -0.0000001229     0.2167683704
H       -0.1781894628     -0.8717529390     -1.2365606470
H       -0.1781894115     0.8717529239     -1.2365606196
H       -1.2574217569     -0.8867603762     0.8496714845
H       -2.0989725859     0.0000008219     -0.4256597894
H       -1.2574217570     0.8867602718     0.8496713968
11
# Point 4 Energy = 0.04128947000000949
C       1.3390143346     0.0000000337     0.3109273514
C       -0.1079732720     -0.0000000196     -0.5835390211
H       1.3764041350     -0.8720354914     0.9706784020
H       1.3764041005     0.8720355606     0.9706784024
H       2.2558182142     0.0000000302     -0.2795025041
C       -1.2023314374     -0.0000001569     0.2017610006
H       -0.2371984053     -0.8701149198     -1.2315781822
H       -0.2371983179     0.8701148996     -1.2315781489
H       -1.2426446587     -0.8887221712     0.8308822170
H       -2.0776500926     0.0000008691     -0.4485665998
H       -1.2426446609     0.8887220319     0.8308821018
11
# Point 5 Energy = 0.06642591000000664
C       1.3578812655     0.0000000420     0.3227933296
C       -0.1349996969     -0.0000000264     -0.5814907404
H       1.3952807372     -0.8697871348     0.9864374848
H       1.3952806936     0.8697872200     0.9864374868
H       2.2792009073     0.0000000387     -0.2605680593
C       -1.1873176555     -0.0000001905     0.1863901714
H       -0.2958799204     -0.8680227986     -1.2252351943
H       -0.2958797976     0.8680227730     -1.2252351564
H       -1.2284780472     -0.8906492364     0.8117418512
H       -2.0566104944     0.0000009173     -0.4719678640
H       -1.2284780523     0.8906490617     0.8117417094
