11
# Point -4 Energy = 0.05562113000000579
C       1.2671493063     0.0722166512     0.2540164039
C       -0.0000006050     0.0717544040     -0.5927717489
H       1.5055158750     -0.8239037079     0.8415644837
H       1.1062260754     0.8916336305     0.9482896838
H       2.1370977983     -0.2325730053     -0.3285764271
C       -1.2671509503     0.0722176401     0.2540153906
H       -0.0000002850     -0.8168528057     -1.2255588192
H       0.0000003815     0.9303533154     -1.2712151782
H       -1.5055179384     -0.8239002161     0.8415674528
H       -2.1370963344     -0.2325748443     -0.3285799274
H       -1.1062233840     0.8916296041     0.9482937048
11
# Point -3 Energy = 0.03116325999998537
C       1.2671731395     0.0544526795     0.2563634881
C       -0.0000004510     0.0538810620     -0.5903893785
H       1.4552601685     -0.8421562116     0.8584851141
H       1.1561495305     0.8935310071     0.9391340971
H       2.1492876823     -0.1752201193     -0.3421733138
C       -1.2671743566     0.0544533820     0.2563627432
H       -0.0000001845     -0.8312630502     -1.2287389810
H       0.0000002419     0.9161686674     -1.2634472481
H       -1.4552616401     -0.8421535916     0.8584873835
H       -2.1492866825     -0.1752213987     -0.3421760733
H       -1.1561475085     0.8935282393     0.9391371876
11
# Point -2 Energy = 0.013822600000011676
C       1.2671902357     0.0364435972     0.2580908954
C       -0.0000003001     0.0359571233     -0.5886368805
H       1.4051306995     -0.8577209028     0.8745751726
H       1.2058575539     0.8922474246     0.9286095416
H       2.1578463870     -0.1172044581     -0.3520289486
C       -1.2671910373     0.0364440469     0.2580904119
H       -0.0000000989     -0.8455448896     -1.2327276691
H       0.0000001127     0.9020572530     -1.2560849846
H       -1.4051316283     -0.8577191354     0.8745767182
H       -2.1578457814     -0.1172051488     -0.3520308774
H       -1.2058562034     0.8922457556     0.9286116394
11
# Point -1 Energy = 0.0034551800000031108
C       1.2672005939     0.0182650846     0.2591456688
C       -0.0000001499     0.0179905867     -0.5875671406
H       1.3551353654     -0.8705739471     0.8897195492
H       1.2555324257     0.8879205845     0.9168137637
H       2.1629298964     -0.0587225961     -0.3579965703
C       -1.2672009894     0.0182653178     0.2591454346
H       -0.0000000252     -0.8597385860     -1.2375048559
H       -0.0000000012     0.8879700420     -1.2492484187
H       -1.3551357946     -0.8705730207     0.8897203464
H       -2.1629296234     -0.0587226653     -0.3579975781
H       -1.2555317584     0.8879198655     0.9168148197
11
# Point 0 Energy = 0
C       1.2672042126     0.0000000000     0.2594997522
C       0.0000000000     0.0000000000     -0.5872081259
H       1.3052750505     -0.8806643351     0.9038259677
H       1.3052750505     0.8806643351     0.9038259677
H       2.1646165232     0.0000000000     -0.3599948239
C       -1.2672042126     -0.0000000181     0.2594997522
H       0.0000000000     -0.8738729764     -1.2430302913
H       -0.0000000606     0.8738729764     -1.2430302913
H       -1.3052750505     -0.8806643351     0.9038259677
H       -2.1646165232     0.0000006841     -0.3599948239
H       -1.3052750505     0.8806643351     0.9038259677
11
# Point 1 Energy = 0.0034552099999984875
C       1.2672010899     -0.0182651678     0.2591448508
C       0.0000001489     -0.0179904708     -0.5875680947
H       1.2555318330     -0.8879191290     0.9168150304
H       1.3551349572     0.8705724349     0.8897209443
H       2.1629291894     0.0587224965     -0.3579989941
C       -1.2672007084     -0.0182652474     0.2591450669
H       0.0000000870     -0.8879718631     -1.2492467064
H       -0.0000001753     0.8597405153     -1.2375032397
H       -1.2555313843     -0.8879198723     0.9168142630
H       -2.1629294022     0.0587237647     -0.3579979065
H       -1.3551356958     0.8705732049     0.8897198049
11
# Point 2 Energy = 0.013822650000008707
C       1.2671912237     -0.0364437998     0.2580892625
C       0.0000002955     -0.0359570452     -0.5886387881
H       1.2058564592     -0.8922443302     0.9286120622
H       1.4051298095     0.8577180468     0.8745779573
H       2.1578449685     0.1172043624     -0.3520337802
C       -1.2671904794     -0.0364439697     0.2580896739
H       0.0000001234     -0.9020610199     -1.2560816660
H       -0.0000002338     0.8455486223     -1.2327243300
H       -1.2058556315     -0.8922459116     0.9286104831
H       -2.1578453314     0.1172063383     -0.3520315338
H       -1.4051312643     0.8577193725     0.8745756780
11
# Point 3 Energy = 0.031163319999990335
C       1.2671746130     -0.0544530813     0.2563610464
C       0.0000004380     -0.0538810474     -0.5903922385
H       1.1561479379     -0.8935261603     0.9391378069
H       1.4552588239     0.8421520938     0.8584893148
H       2.1492855403     0.1752200340     -0.3421805228
C       -1.2671735289     -0.0544532937     0.2563616305
H       0.0000001444     -0.9161744253     -1.2634423601
H       -0.0000002733     0.8312685387     -1.2287338801
H       -1.1561467710     -0.8935285878     0.9391354003
H       -2.1492859876     0.1752227353     -0.3421770556
H       -1.4552609973     0.8421538600     0.8584858769
11
# Point 4 Energy = 0.05562118000000282
C       1.2671512574     -0.0722173325     0.2540131641
C       0.0000005747     -0.0717544793     -0.5927755586
H       1.1062239835     -0.8916269090     0.9482945059
H       1.5055141168     0.8238984001     0.8415701178
H       2.1370949070     0.2325729432     -0.3285859712
C       -1.2671498615     -0.0722175368     0.2540138965
H       0.0000001484     -0.9303611082     -1.2712087548
H       -0.0000002942     0.8168600029     -1.2255519178
H       -1.1062225172     -0.8916301949     0.9482912586
H       -2.1370953703     0.2325763810     -0.3285812312
H       -1.5055170053     0.8239004996     0.8415655096
