11
# Point -3 Energy = 0.06702547999998387
C       1.2672054008     -0.0642940703     0.2597354825
C       0.0000004009     -0.0607102314     -0.5869638080
H       1.3009101789     -0.8238136477     0.8249236822
H       1.3094256047     0.9388620981     0.9812657377
H       2.1645325325     -0.0506429830     -0.3597115928
C       -1.2672026533     -0.0642951970     0.2597383563
H       0.0000002441     -0.8440353735     -1.1828509013
H       -0.0000004311     0.9045207659     -1.3015624664
H       -1.3009065086     -0.8238065018     0.8249200155
H       -2.1645416428     -0.0506435454     -0.3597157021
H       -1.3094231867     0.9388593520     0.9812662153
11
# Point -2 Energy = 0.028996440000014445
C       1.2672051052     -0.0428624577     0.2596041319
C       0.0000002647     -0.0404764068     -0.5870995606
H       1.3023891716     -0.8426112286     0.8513890535
H       1.3080663949     0.9193181625     0.9556129609
H       2.1645773886     -0.0337640433     -0.3598679587
C       -1.2672032819     -0.0428631821     0.2596060442
H       0.0000001678     -0.8538957064     -1.2030900655
H       -0.0000003051     0.8942098380     -1.2822387857
H       -1.3023867158     -0.8426064212     0.8513866198
H       -2.1645834679     -0.0337642488     -0.3598707055
H       -1.3080647826     0.9193163606     0.9556132846
11
# Point -1 Energy = 0.007135329999996998
C       1.2672047091     -0.0214311587     0.2595254652
C       0.0000001311     -0.0202390548     -0.5871810838
H       1.3038441309     -0.8615621743     0.8776894454
H       1.3066828749     0.8999180042     0.9298001807
H       2.1646053825     -0.0168826559     -0.3599624397
C       -1.2672038015     -0.0214314890     0.2595264196
H       0.0000000989     -0.8638407365     -1.2231505136
H       -0.0000001940     0.8839949801     -1.2627272176
H       -1.3038428889     -0.8615597183     0.8776882426
H       -2.1646084249     -0.0168824789     -0.3599638166
H       -1.3066820787     0.8999171481     0.9298003367
11
# Point 0 Energy = 0
C       1.2672042126     0.0000000000     0.2594997522
C       0.0000000000     0.0000000000     -0.5872081259
H       1.3052750505     -0.8806643351     0.9038259677
H       1.3052750505     0.8806643351     0.9038259677
H       2.1646165232     0.0000000000     -0.3599948239
C       -1.2672042126     -0.0000000181     0.2594997522
H       0.0000000000     -0.8738729764     -1.2430302913
H       -0.0000000606     0.8738729764     -1.2430302913
H       -1.3052750505     -0.8806643351     0.9038259677
H       -2.1646165232     0.0000006841     -0.3599948239
H       -1.3052750505     0.8806643351     0.9038259677
11
# Point 1 Energy = 0.0071353599999923745
C       1.2672036151     0.0214311224     0.2595271231
C       -0.0000001288     0.0202391859     -0.5871805604
H       1.3066816937     -0.8999156410     0.9297995833
H       1.3038431078     0.8615596653     0.8776889420
H       2.1646108033     0.0168825321     -0.3599650052
C       -1.2672045151     0.0214315560     0.2595261722
H       -0.0000000178     -0.8839951621     -1.2627268699
H       -0.0000000160     0.8638410793     -1.2231503006
H       -1.3066828738     -0.8999179278     0.9298008347
H       -2.1646077561     0.0168835502     -0.3599636215
H       -1.3038439728     0.8615607057     0.8776887212
11
# Point 2 Energy = 0.028996689999999603
C       1.2672029167     0.0428624428     0.2596074478
C       -0.0000002556     0.0404765451     -0.5870985140
H       1.3080641432     -0.9193133483     0.9556117975
H       1.3023870161     0.8426062978     0.8513880153
H       2.1645882294     0.0337638498     -0.3598730894
C       -1.2672047097     0.0428632459     0.2596055492
H       -0.0000000658     -0.8942102753     -1.2822381581
H       0.0000000511     0.8538963190     -1.2030895717
H       -1.3080665300     -0.9193180266     0.9556142720
H       -2.1645821307     0.0337653263     -0.3598703154
H       -1.3023887252     0.8426082894     0.8513875856
11
# Point 3 Energy = 0.06702635999999984
C       1.2672021168     0.0642940911     0.2597404564
C       -0.0000003805     0.0607103817     -0.5869622383
H       1.3094223045     -0.9388548227     0.9812639977
H       1.3009068723     0.8238063042     0.8249221201
H       2.1645487920     0.0506426733     -0.3597192879
C       -1.2672047962     0.0642952554     0.2597376135
H       -0.0000001071     -0.9045214538     -1.3015615591
H       0.0000001036     0.8440362607     -1.1828501265
H       -1.3094258939     -0.9388619062     0.9812676928
H       -2.1645396382     0.0506446334     -0.3597151175
H       -1.3009094340     0.8238092489     0.8249214677
