11
# Point -4 Energy = 0.055134819999992146
C       1.2200953863     -0.0000031012     0.3050756190
C       -0.0482616479     -0.0000014562     -0.5807468404
H       1.3145681335     -1.0089999718     0.6989197648
H       1.3145811422     1.0089946780     0.6989158307
H       2.2062605526     0.0000116701     -0.1792469341
C       -1.3139747021     0.0000018471     0.2261353325
H       0.0373350335     -0.8721747783     -1.2332378340
H       0.0373350006     0.8721727924     -1.2332364371
H       -1.3315294555     -0.6931699560     1.0755382363
H       -2.1048872674     -0.0000037710     -0.5126105550
H       -1.3315222364     0.6931727130     1.0755388361
11
# Point -3 Energy = 0.03092310999998915
C       1.2316829913     -0.0000024414     0.2928275374
C       -0.0361746040     -0.0000011735     -0.5836290847
H       1.3091899400     -0.9831322601     0.7533413966
H       1.3091996317     0.9831284260     0.7533384989
H       2.1972943684     0.0000088673     -0.2269610607
C       -1.3025203950     0.0000013296     0.2329279929
H       0.0282824565     -0.8729155329     -1.2375581142
H       0.0282824660     0.8729139314     -1.2375569963
H       -1.3217201434     -0.7447920447     1.0358380029
H       -2.1218022440     -0.0000025193     -0.4773616273
H       -1.3217145284     0.7447940837     1.0358384735
11
# Point -2 Energy = 0.013722460000010983
C       1.2434488827     -0.0000017037     0.2811230433
C       -0.0240949121     -0.0000008370     -0.5856330614
H       1.3057016474     -0.9530193393     0.8055473113
H       1.3057080555     0.9530168678     0.8055454196
H       2.1874167302     0.0000059921     -0.2729654780
C       -1.2908635496     0.0000008450     0.2408470168
H       0.0190028626     -0.8734461985     -1.2406085756
H       0.0190028776     0.8734450578     -1.2406077824
H       -1.3140026751     -0.7934224338     0.9939517280
H       -2.1373211856     -0.0000013641     -0.4401066567
H       -1.3139987942     0.7934237799     0.9939520540
11
# Point -1 Energy = 0.003428850000005923
C       1.2553111531     -0.0000008895     0.2699904919
C       -0.0120388143     -0.0000004461     -0.5868163875
H       1.3043554613     -0.9188053986     0.8556940685
H       1.3043586347     0.9188042016     0.8556931453
H       2.1765462393     0.0000030388     -0.3173148728
C       -1.2790725894     0.0000003951     0.2497472510
H       0.0095480611     -0.8737655784     -1.2424271082
H       0.0095480508     0.8737649720     -1.2424266871
H       -1.3084972875     -0.8387949039     0.9499288438
H       -2.1515636916     -0.0000002985     -0.4009527380
H       -1.3084952781     0.8387955735     0.9499290121
11
# Point 0 Energy = 0
C       1.2672042126     0.0000000000     0.2594997522
C       0.0000000000     0.0000000000     -0.5872081259
H       1.3052750505     -0.8806643351     0.9038259677
H       1.3052750505     0.8806643351     0.9038259677
H       2.1646165232     0.0000000000     -0.3599948239
C       -1.2672042126     -0.0000000181     0.2594997522
H       0.0000000000     -0.8738729764     -1.2430302913
H       -0.0000000606     0.8738729764     -1.2430302913
H       -1.3052750505     -0.8806643351     0.9038259677
H       -2.1646165232     0.0000006841     -0.3599948239
H       -1.3052750505     0.8806643351     0.9038259677
11
# Point 1 Energy = 0.003428850000005923
C       1.2790724140     0.0000009594     0.2497472164
C       0.0120388122     0.0000004985     -0.5868169505
H       1.3084986651     -0.8387968580     0.9499256910
H       1.3084955427     0.8387979877     0.9499265533
H       2.1515651000     -0.0000031267     -0.4009508919
C       -1.2553109117     -0.0000003938     0.2699905507
H       -0.0095480334     -0.8737681809     -1.2424226012
H       -0.0095481632     0.8737688575     -1.2424230645
H       -1.3043569260     -0.9188069296     0.8556907080
H       -2.1765475028     0.0000015955     -0.3173127236
H       -1.3043590574     0.9188062564     0.8556905312
11
# Point 2 Energy = 0.013722439999995117
C       1.2908632628     0.0000019902     0.2408468430
C       0.0240949015     0.0000010547     -0.5856341950
H       1.3140053399     -0.7934267318     0.9939456404
H       1.3139991608     0.7934289365     0.9939473026
H       2.1373241434     -0.0000063572     -0.4401032605
C       -1.2434483361     -0.0000007295     0.2811232440
H       -0.0190027544     -0.8734514029     -1.2405995660
H       -0.0190029668     0.8734528311     -1.2406005418
H       -1.3057046577     -0.9530219505     0.8055403870
H       -2.1874191101     0.0000024352     -0.2729608654
H       -1.3057090439     0.9530205903     0.8055400306
11
# Point 3 Energy = 0.030923029999996743
C       1.3025200536     0.0000030910     0.2329275664
C       0.0361745707     0.0000016707     -0.5836308002
H       1.3217240086     -0.7447990394     1.0358292191
H       1.3217148293     0.7448022752     1.0358316103
H       2.1218068863     -0.0000097030     -0.4773569702
C       -1.2316820839     -0.0000010239     0.2928279561
H       -0.0282822254     -0.8729233381     -1.2375446067
H       -0.0282825274     0.8729255974     -1.2375461433
H       -1.3091945511     -0.9831354790     0.7533306865
H       -2.1972977188     0.0000032072     -0.2269536513
H       -1.3092013024     0.9831334078     0.7533301523
11
# Point 4 Energy = 0.05513463000001195
C       1.3139743479     0.0000042600     0.2261345364
C       0.0482615605     0.0000023486     -0.5807491458
H       1.3315344406     -0.6931799589     1.0755270218
H       1.3315222955     0.6931841921     1.0755300630
H       2.1048937178     -0.0000131769     -0.5126049166
C       -1.2200940786     -0.0000012760     0.3050763352
H       -0.0373346586     -0.8721851823     -1.2332198263
H       -0.0373350505     0.8721883587     -1.2332219706
H       -1.3145743444     -1.0090033104     0.6989049911
H       -2.2062647357     0.0000039149     -0.1792363553
H       -1.3145835551     1.0090004964     0.6989042859

    This sampling was finished on:   2020-07-02 17:54:42
=------------------------------------------------------------------------------=
Sampling finished.
=------------------------------------------------------------------------------=