11
# Point -4 Energy = 0.06114441000001136
C       1.3126061469     0.0000000915     0.3693131831
C       0.0000012564     0.0000001936     -0.5150378587
H       1.0801610629     -0.9418025652     0.8585875261
H       1.0801612824     0.9418027621     0.8585876287
H       1.9890946541     0.0000001481     -0.4790707889
C       -1.3126032725     -0.0000000034     0.3693122230
H       0.0000008274     -0.8707657553     -1.1793775053
H       0.0000015030     0.8707659227     -1.1793778341
H       -1.0801641341     -0.9418033225     0.8585882745
H       -1.9890966564     0.0000001317     -0.4790681944
H       -1.0801627306     0.9418030625     0.8585883650
11
# Point -3 Energy = 0.03339800999999909
C       1.3012799025     0.0000000708     0.3388244447
C       0.0000008952     0.0000001397     -0.5360834948
H       1.1425787147     -0.9328460038     0.8754424777
H       1.1425788692     0.9328461389     0.8754425521
H       2.0453010740     0.0000001113     -0.4528515451
C       -1.3012778231     -0.0000000175     0.3388237505
H       0.0000005711     -0.8715499856     -1.1982946403
H       0.0000010555     0.8715501019     -1.1982948855
H       -1.1425810181     -0.9328463014     0.8754428175
H       -2.0453023197     0.0000002690     -0.4528493832
H       -1.1425799819     0.9328461429     0.8754429254
11
# Point -2 Energy = 0.014221879999993803
C       1.2899374630     0.0000000482     0.3101372122
C       0.0000005335     0.0000000904     -0.5553491273
H       1.2017185572     -0.9187973654     0.8883367596
H       1.2017186550     0.9187974477     0.8883368076
H       2.0933618944     0.0000000741     -0.4231830548
C       -1.2899361795     -0.0000000232     0.3101367845
H       0.0000003110     -0.8723292676     -1.2154311808
H       0.0000006094     0.8723293405     -1.2154313439
H       -1.2017200181     -0.9187974340     0.8883368088
H       -2.0933625492     0.0000004044     -0.4231815526
H       -1.2017193372     0.9187973508     0.8883369055
11
# Point -1 Energy = 0.003413580000000138
C       1.2785788961     0.0000000244     0.2837790306
C       0.0000002372     0.0000000445     -0.5723072747
H       1.2557789350     -0.9010933887     0.8975706196
H       1.2557789825     0.9010934263     0.8975706431
H       2.1327029871     0.0000000366     -0.3919846943
C       -1.2785783033     -0.0000000228     0.2837788319
H       0.0000001234     -0.8731035986     -1.2302596623
H       0.0000002400     0.8731036338     -1.2302597440
H       -1.2557796261     -0.9010933765     0.8975705681
H       -2.1327032422     0.0000005416     -0.3919839265
H       -1.2557792903     0.9010933454     0.8975706274
11
# Point 0 Energy = 0
C       1.2672042126     0.0000000000     0.2594997522
C       0.0000000000     0.0000000000     -0.5872081259
H       1.3052750505     -0.8806643351     0.9038259677
H       1.3052750505     0.8806643351     0.9038259677
H       2.1646165232     0.0000000000     -0.3599948239
C       -1.2672042126     -0.0000000181     0.2594997522
H       0.0000000000     -0.8738729764     -1.2430302913
H       -0.0000000606     0.8738729764     -1.2430302913
H       -1.3052750505     -0.8806643351     0.9038259677
H       -2.1646165232     0.0000006841     -0.3599948239
H       -1.3052750505     0.8806643351     0.9038259677
11
# Point 1 Energy = 0.0031409899999772506
C       1.2558134158     -0.0000000249     0.2369382877
C       -0.0000001938     -0.0000000424     -0.6004128082
H       1.3511337873     -0.8580130538     0.9076487808
H       1.3511337443     0.8580130225     0.9076487582
H       2.1904700796     -0.0000000376     -0.3274025705
C       -1.2558139344     -0.0000000087     0.2369384682
H       -0.0000000779     -0.8746373973     -1.2541042111
H       -0.0000003112     0.8746373649     -1.2541041305
H       -1.3511331533     -0.8580131329     0.9076489444
H       -2.1904699316     0.0000008303     -0.3274033676
H       -1.3511334855     0.8580131460     0.9076488675
11
# Point 2 Energy = 0.012265779999992787
C       1.2444065129     -0.0000000501     0.2158316924
C       -0.0000003549     -0.0000000824     -0.6121843067
H       1.3940602729     -0.8334522698     0.9094025504
H       1.3940601913     0.8334522124     0.9094025066
H       2.2112563803     -0.0000000767     -0.2942774579
C       -1.2444074913     0.0000000049     0.2158320434
H       -0.0000001228     -0.8753968575     -1.2637444234
H       -0.0000005246     0.8753967961     -1.2637442639
H       -1.3940590475     -0.8334524816     0.9094029652
H       -2.2112561692     0.0000009788     -0.2942790814
H       -1.3940597077     0.8334524918     0.9094027944
11
# Point 3 Energy = 0.027090410000013776
C       1.2329835135     -0.0000000755     0.1960062635
C       -0.0000004895     -0.0000001206     -0.6226963671
H       1.4345402854     -0.8072056169     0.9093303462
H       1.4345401685     0.8072055387     0.9093302822
H       2.2276720196     -0.0000001163     -0.2606712750
C       -1.2329849021     0.0000000227     0.1960067806
H       -0.0000001426     -0.8761513541     -1.2721246913
H       -0.0000007085     0.8761512660     -1.2721244538
H       -1.4345385026     -0.8072060082     0.9093310837
H       -2.2276718173     0.0000011304     -0.2606737535
H       -1.4345394853     0.8072059999     0.9093308033
11
# Point 4 Energy = 0.047517779999978416
C       1.2215444291     -0.0000001012     0.1773319131
C       -0.0000006018     -0.0000001570     -0.6320791216
H       1.4729413842     -0.7794262810     0.9076008594
H       1.4729412353     0.7794261865     0.9076007762
H       2.2402468926     -0.0000001567     -0.2265960919
C       -1.2215461838     0.0000000450     0.1773325954
H       -0.0000001425     -0.8769008838     -1.2793751636
H       -0.0000008677     0.8769007710     -1.2793748495
H       -1.4729390720     -0.7794268942     0.9076019796
H       -2.2402467631     0.0000012843     -0.2265994531
H       -1.4729403709     0.7794268531     0.9076015750
11
# Point 5 Energy = 0.07357761000001517
C       1.2100892718     -0.0000001270     0.1597142793
C       -0.0000006943     -0.0000001915     -0.6404269776
H       1.5095287132     -0.7502286877     0.9043323646
H       1.5095285360     0.7502285813     0.9043322636
H       2.2493818602     -0.0000001978     -0.1920524633
C       -1.2100913522     0.0000000720     0.1597151282
H       -0.0000001258     -0.8776454431     -1.2855902646
H       -0.0000010054     0.8776453079     -1.2855898755
H       -1.5095258965     -0.7502295628     0.9043339201
H       -2.2493818634     0.0000014395     -0.1920567329
H       -1.5095275041     0.7502294752     0.9043333768
