11
# Point -5 Energy = 0.05055283000001509
C       1.2363040860     0.1136246196     0.2595253261
C       -0.0000000134     0.2014631756     -0.6273548515
H       1.0485884981     -0.8887804429     0.6575405534
H       1.4464577794     0.7825417932     1.0927614293
H       2.1346912320     -0.0045573549     -0.3471505835
C       -1.2363041554     0.1136256600     0.2595251834
H       -0.0000007651     -0.8897517931     -0.7554918410
H       0.0000005664     0.6826299885     -1.6014615106
H       -1.0485873788     -0.8887792411     0.6575405189
H       -2.1346911949     -0.0045580921     -0.3471505732
H       -1.4464587148     0.7825423531     1.0927613676
11
# Point -4 Energy = 0.03069743999998309
C       1.2467303387     0.0927704551     0.2595712116
C       -0.0000000067     0.1645195051     -0.6140624478
H       1.1044545195     -0.8943854933     0.7095597510
H       1.4289944735     0.8080491125     1.0610120494
H       2.1452735916     -0.0013751363     -0.3510668627
C       -1.2467303828     0.0927713045     0.2595710862
H       -0.0000005999     -0.9050389982     -0.8600860326
H       0.0000004634     0.7304004698     -1.5429586319
H       -1.1044536041     -0.8943845458     0.7095597160
H       -2.1452736124     -0.0013755910     -0.3510668495
H       -1.4289952415     0.8080495836     1.0610120291
11
# Point -3 Energy = 0.01652328000000125
C       1.2553880830     0.0706956894     0.2595698835
C       -0.0000000024     0.1253664284     -0.6028293385
H       1.1592728965     -0.8966148526     0.7605906890
H       1.4065044014     0.8310084615     1.0260516841
H       2.1536693943     0.0003838386     -0.3546525905
C       -1.2553881080     0.0706963437     0.2595697807
H       -0.0000004322     -0.9104404236     -0.9618607034
H       0.0000003442     0.7741268214     -1.4773841604
H       -1.1592721944     -0.8966141442     0.7605906635
H       -2.1536694484     0.0003836552     -0.3546525759
H       -1.4065049946     0.8310088481     1.0260516868
11
# Point -2 Energy = 0.007119429999988824
C       1.2618669462     0.0476699979     0.2595405555
C       -0.0000000002     0.0845112211     -0.5943067882
H       1.2117742242     -0.8951675566     0.8102122366
H       1.3784570101     0.8509980263     0.9880544333
H       2.1597378891     0.0009737019     -0.3575247521
C       -1.2618669578     0.0476704540     0.2595404811
H       -0.0000002674     -0.9065682094     -1.0600101941
H       0.0000002098     0.8131079954     -1.4052028826
H       -1.2117737425     -0.8951670708     0.8102122264
H       -2.1597379511     0.0009737809     -0.3575247388
H       -1.3784574210     0.8509983253     0.9880544418
11
# Point -1 Energy = 0.0017528300000009267
C       1.2658614822     0.0239968564     0.2595107515
C       0.0000000006     0.0425247869     -0.5890010366
H       1.2607681731     -0.8898652054     0.8580621932
H       1.3446544161     0.8676467616     0.9472349853
H       2.1633971805     0.0007187648     -0.3593674073
C       -1.2658614857     0.0239971125     0.2595107113
H       -0.0000001098     -0.8941265225     -1.1539112159
H       0.0000000618     0.8466069743     -1.3269237485
H       -1.2607679165     -0.8898649253     0.8580622009
H       -2.1633972243     0.0007190991     -0.3593673988
H       -1.3446546385     0.8676469638     0.9472349837
11
# Point 0 Energy = 0
C       1.2672042126     0.0000000000     0.2594997522
C       0.0000000000     0.0000000000     -0.5872081259
H       1.3052750505     -0.8806643351     0.9038259677
H       1.3052750505     0.8806643351     0.9038259677
H       2.1646165232     0.0000000000     -0.3599948239
C       -1.2672042126     -0.0000000181     0.2594997522
H       0.0000000000     -0.8738729764     -1.2430302913
H       -0.0000000606     0.8738729764     -1.2430302913
H       -1.3052750505     -0.8806643351     0.9038259677
H       -2.1646165232     0.0000006841     -0.3599948239
H       -1.3052750505     0.8806643351     0.9038259677
11
# Point 1 Energy = 0.0017528199999929939
C       1.2658614517     -0.0239969008     0.2595107272
C       -0.0000000018     -0.0425246583     -0.5890010398
H       1.3446543058     -0.8676468344     0.9472349405
H       1.2607682442     0.8898651226     0.8580622344
H       2.1633971912     -0.0007188649     -0.3593673714
C       -1.2658614527     -0.0239970441     0.2595107730
H       0.0000001707     -0.8466068805     -1.3269237050
H       -0.0000002659     0.8941265889     -1.1539113106
H       -1.3446545024     -0.8676469159     0.9472349816
H       -2.1633971221     -0.0007180321     -0.3593673837
H       -1.2607680794     0.8898650856     0.8580621726
11
# Point 2 Energy = 0.007119429999988824
C       1.2618668846     -0.0476700455     0.2595405071
C       -0.0000000048     -0.0845110928     -0.5943067954
H       1.3784568755     -0.8509980951     0.9880543828
H       1.2117742780     0.8951674691     0.8102122799
H       2.1597379100     -0.0009738002     -0.3575246797
C       -1.2618668910     -0.0476703854     0.2595406038
H       0.0000002896     -0.8131078823     -1.4052028603
H       -0.0000004397     0.9065682695     -1.0600103184
H       -1.3784572960     -0.8509983351     0.9880544358
H       -2.1597377470     -0.0009727203     -0.3575247079
H       -1.2117739198     0.8951672841     0.8102121713
11
# Point 3 Energy = 0.016523269999979107
C       1.2553879894     -0.0706957421     0.2595698107
C       -0.0000000093     -0.1253663005     -0.6028293513
H       1.4065042377     -0.8310085280     1.0260516253
H       1.1592729334     0.8966147617     0.7605907364
H       2.1536694238     -0.0003839341     -0.3546524810
C       -1.2553880055     -0.0706962747     0.2595699631
H       0.0000003925     -0.7741266865     -1.4773841563
H       -0.0000006148     0.9104404833     -0.9618608588
H       -1.4065048779     -0.8310089153     1.0260516842
H       -2.1536691437     -0.0003826051     -0.3546525275
H       -1.1592723863     0.8966144073     0.7605905742
11
# Point 4 Energy = 0.030697429999975157
C       1.2467302120     -0.0927705148     0.2595711143
C       -0.0000000156     -0.1645193768     -0.6140624683
H       1.4289942754     -0.8080491790     1.0610119798
H       1.1044545394     0.8943854006     0.7095598040
H       2.1452736277     0.0013750444     -0.3510667157
C       -1.2467302422     -0.0927712352     0.2595713262
H       0.0000004789     -0.7304003117     -1.5429586429
H       -0.0000007864     0.9050390638     -0.8600862196
H       -1.4289951298     -0.8080497070     1.0610120367
H       -2.1452732089     0.0013766270     -0.3510667812
H       -1.1044538112     0.8943848548     0.7095595855
11
# Point 5 Energy = 0.05055281999999295
C       1.2363039251     -0.1136246881     0.2595252041
C       -0.0000000242     -0.2014630458     -0.6273548818
H       1.4464575419     -0.7825418630     1.0927613468
H       1.0485885012     0.8887803508     0.6575406130
H       2.1346912726     0.0045572666     -0.3471503989
C       -1.2363039745     -0.1136255906     0.2595254785
H       0.0000005486     -0.6826298066     -1.6014615336
H       -0.0000009489     0.8897518710     -0.7554920585
H       -1.4464586045     -0.7825425308     1.0927613913
H       -2.1346906949     0.0045591104     -0.3471504824
H       -1.0485876031     0.8887795920     0.6575403404
