11
# Point -3 Energy = 0.0805417299999931
C       1.2754566009     0.0000000295     0.2806275564
C       0.0000008150     0.0000001409     -0.5742702589
H       1.3033350039     -0.7720374933     0.8410031963
H       1.3033350995     0.7720376419     0.8410032238
H       2.0737188962     -0.0000000166     -0.2795364758
C       -1.2754546529     0.0000002995     0.2806261629
H       0.0000010099     -0.8693196480     -1.2254418414
H       0.0000010404     0.8693195784     -1.2254416444
H       -1.3033342321     -0.7720479728     0.8410099188
H       -2.0737255255     0.0000008962     -0.2795438494
H       -1.3033341159     0.7720472101     0.8410090306
11
# Point -2 Energy = 0.03276503999998681
C       1.2727082587     0.0000000202     0.2736437198
C       0.0000005511     0.0000000942     -0.5785211040
H       1.3038151375     -0.8083211625     0.8619182997
H       1.3038152040     0.8083212631     0.8619183173
H       2.1039175890     -0.0000000116     -0.3064567779
C       -1.2727069445     0.0000001936     0.2736427905
H       0.0000006820     -0.8708383308     -1.2312418374
H       0.0000006818     0.8708382849     -1.2312417063
H       -1.3038146497     -0.8083281367     0.8619227944
H       -2.1039220022     0.0000008244     -0.3064616807
H       -1.3038145684     0.8083276273     0.8619222036
11
# Point -1 Energy = 0.007519579999978987
C       1.2699574616     0.0000000103     0.2666010012
C       0.0000002794     0.0000000473     -0.5828338432
H       1.3044620239     -0.8445301811     0.8828593736
H       1.3044620586     0.8445302320     0.8828593821
H       2.1342171545     -0.0000000061     -0.3332762352
C       -1.2699567967     0.0000000878     0.2666005365
H       0.0000003454     -0.8723561072     -1.2371047710
H       0.0000003146     0.8723560845     -1.2371047055
H       -1.3044617933     -0.8445336620     0.8828616276
H       -2.1342193578     0.0000007535     -0.3332786800
H       -1.3044617508     0.8445334070     0.8828613327
11
# Point 0 Energy = 0
C       1.2672042126     0.0000000000     0.2594997522
C       0.0000000000     0.0000000000     -0.5872081259
H       1.3052750505     -0.8806643351     0.9038259677
H       1.3052750505     0.8806643351     0.9038259677
H       2.1646165232     0.0000000000     -0.3599948239
C       -1.2672042126     -0.0000000181     0.2594997522
H       0.0000000000     -0.8738729764     -1.2430302913
H       -0.0000000606     0.8738729764     -1.2430302913
H       -1.3052750505     -0.8806643351     0.9038259677
H       -2.1646165232     0.0000006841     -0.3599948239
H       -1.3052750505     0.8806643351     0.9038259677
11
# Point 1 Energy = 0.00639203000001487
C       1.2644485149     -0.0000000110     0.2523402398
C       -0.0000002869     -0.0000000475     -0.5916436856
H       1.3062538997     -0.9167232784     0.9248176871
H       1.3062538624     0.9167232260     0.9248176794
H       2.1951147421     0.0000000065     -0.3866124210
C       -1.2644491955     -0.0000001237     0.2523407044
H       -0.0000003538     -0.8753889376     -1.2490181320
H       -0.0000004441     0.8753889598     -1.2490181975
H       -1.3062541038     -0.9167198096     0.9248154201
H       -2.1951125454     0.0000006157     -0.3866099895
H       -1.3062541504     0.9167200658     0.9248157137
11
# Point 2 Energy = 0.023634180000001948
C       1.2616903717     -0.0000000227     0.2451228060
C       -0.0000005814     -0.0000000952     -0.5961401810
H       1.3073979899     -0.9527067949     0.9458340900
H       1.3073979127     0.9527066880     0.9458340755
H       2.2257107699     0.0000000136     -0.4131289973
C       -1.2616917484     -0.0000002289     0.2451237349
H       -0.0000007157     -0.8769039898     -1.2550679515
H       -0.0000008358     0.8769040339     -1.2550680826
H       -1.3073983715     -0.9526998691     0.9458295433
H       -2.2257063831     0.0000005478     -0.4131241475
H       -1.3073984690     0.9527003832     0.9458301292
11
# Point 3 Energy = 0.049293849999997974
C       1.2589297861     -0.0000000351     0.2378477218
C       -0.0000008833     -0.0000001431     -0.6006973418
H       1.3087069960     -0.9886145546     0.9668747834
H       1.3087068763     0.9886143916     0.9668747629
H       2.2564036610     0.0000000212     -0.4395444423
C       -1.2589318745     -0.0000003338     0.2378491144
H       -0.0000010859     -0.8784181324     -1.2611794798
H       -0.0000012354     0.8784181979     -1.2611796764
H       -1.3087075289     -0.9886041839     0.9668679439
H       -2.2563970909     0.0000004811     -0.4395371880
H       -1.3087076812     0.9886049571     0.9668688209
11
# Point 4 Energy = 0.08142609000000789
C       1.2561667612     -0.0000000482     0.2305152938
C       -0.0000011925     -0.0000001913     -0.6053148622
H       1.3101804696     -1.0244462913     0.9879393529
H       1.3101803049     1.0244460707     0.9879393271
H       2.2871924309     0.0000000293     -0.4658586927
C       -1.2561695770     -0.0000004385     0.2305171493
H       -0.0000014641     -0.8799313645     -1.2673524109
H       -0.0000016429     0.8799314508     -1.2673526731
H       -1.3101811277     -1.0244324881     0.9879302078
H       -2.2871836844     0.0000004155     -0.4658490477
H       -1.3101813386     1.0244335215     0.9879313745
