11
# Point -10 Energy = 0.0605889899999994
C       1.5283235342     -0.0000008298     0.2674841667
C       -0.0000002017     0.0000030630     -0.0567868007
H       1.9519101833     -0.8852519541     0.7417523350
H       1.9519171910     0.8852466653     0.7417528485
H       1.8744861040     -0.0000042312     -0.7718817281
C       -1.5283239664     0.0000012529     0.2674836206
H       0.0000012213     -0.8238640296     -0.7801943652
H       -0.0000003796     0.8238751378     -0.7801887207
H       -1.9519098706     -0.8852456129     0.7417603592
H       -1.8744871846     -0.0000118989     -0.7718816849
H       -1.9519166916     0.8852531036     0.7417449886
11
# Point -9 Energy = 0.049710640000000694
C       1.5116000795     -0.0000007940     0.2669836287
C       -0.0000001842     0.0000030831     -0.1125388068
H       1.9037329912     -0.8854540184     0.7676277257
H       1.9037398131     0.8854491566     0.7676281724
H       1.9219581924     -0.0000041767     -0.7482085346
C       -1.5116004922     0.0000010981     0.2669831380
H       0.0000011081     -0.8309256603     -0.8272413582
H       -0.0000003636     0.8309360466     -0.8272364787
H       -1.9037324235     -0.8854481911     0.7676349223
H       -1.9219591667     -0.0000109329     -0.7482084544
H       -1.9037396147     0.8854550550     0.7676210645
11
# Point -8 Energy = 0.03987582999999972
C       1.4927496430     -0.0000007486     0.2663136118
C       -0.0000001660     0.0000030094     -0.1681372132
H       1.8515250815     -0.8855293202     0.7916460771
H       1.8515315878     0.8855249411     0.7916464926
H       1.9661362317     -0.0000040475     -0.7205062730
C       -1.4927500305     0.0000009478     0.2663131774
H       0.0000009921     -0.8375206570     -0.8745107216
H       -0.0000003456     0.8375302064     -0.8745065598
H       -1.8515243200     -0.8855240340     0.7916524408
H       -1.9661370962     -0.0000099065     -0.7205061643
H       -1.8515316383     0.8855302752     0.7916401512
11
# Point -7 Energy = 0.031069889999997713
C       1.4717690784     -0.0000006936     0.2655093187
C       -0.0000001470     0.0000028497     -0.2234191788
H       1.7953767910     -0.8854702137     0.8136803114
H       1.7953828553     0.8854663589     0.8136807190
H       2.0066960204     -0.0000038389     -0.6887765248
C       -1.4717694351     0.0000008025     0.2655089411
H       0.0000008734     -0.8436514593     -0.9218633297
H       -0.0000003251     0.8436600666     -0.9218598388
H       -1.7953758984     -0.8854654954     0.8136858408
H       -2.0066967725     -0.0000088159     -0.6887763965
H       -1.7953831010     0.8854711051     0.8136751564
11
# Point -6 Energy = 0.023300270000021328
C       1.4486653651     -0.0000006286     0.2646084626
C       -0.0000001274     0.0000026119     -0.2782170878
H       1.7354057276     -0.8852690251     0.8336114149
H       1.7354112284     0.8852657236     0.8336118252
H       2.0433210311     -0.0000035474     -0.6530480199
C       -1.4486656855     0.0000006629     0.2646081419
H       0.0000007525     -0.8493211127     -0.9691539332
H       -0.0000003013     0.8493286832     -0.9691510673
H       -1.7354047676     -0.8852649015     0.8336161124
H       -2.0433216694     -0.0000076587     -0.6530478814
H       -1.7354116142     0.8852698584     0.8336070513
11
# Point -5 Energy = 0.016600059999987593
C       1.4234560040     -0.0000005531     0.2636509085
C       -0.0000001071     0.0000023044     -0.3323599034
H       1.6717569199     -0.8849181261     0.8513302575
H       1.6717617423     0.8849153945     0.8513306691
H       2.0757060577     -0.0000031708     -0.6133779658
C       -1.4234562827     0.0000005294     0.2636506444
H       0.0000006297     -0.8545331541     -1.0162324357
H       -0.0000002736     0.8545396045     -1.0162301501
H       -1.6717559574     -0.8849146239     0.8513341299
H       -2.0757065819     -0.0000064337     -0.6133778267
H       -1.6717622115     0.8849188949     0.8513266911
11
# Point -4 Energy = 0.010981230000012943
C       1.3961693198     -0.0000004667     0.2626782448
C       -0.0000000863     0.0000019354     -0.3856746071
H       1.6046025603     -0.8844100127     0.8667393607
H       1.6046065972     0.8844078562     0.8667397600
H       2.1035609613     -0.0000027081     -0.5698530549
C       -1.3961695516     0.0000004031     0.2626780365
H       0.0000005053     -0.8592914958     -1.0629452727
H       -0.0000002415     0.8592967543     -1.0629435246
H       -1.6046016605     -0.8844071584     0.8667424188
H       -2.1035613727     -0.0000051410     -0.5698529247
H       -1.6046070919     0.8844106997     0.8667365822
11
# Point -3 Energy = 0.006441770000009228
C       1.3668446743     -0.0000003687     0.2617332936
C       -0.0000000651     0.0000015134     -0.4379877045
H       1.5341413351     -0.8837373882     0.8797545684
H       1.5341444886     0.8837358011     0.8797549307
H       2.1266144710     -0.0000021596     -0.5225901086
C       -1.3668448545     0.0000002846     0.2617331401
H       0.0000003797     -0.8636003091     -1.1091368688
H       -0.0000002045     0.8636043162     -1.1091356170
H       -1.5341405635     -0.8837352080     0.8797568277
H       -2.1266147720     -0.0000037817     -0.5225899971
H       -1.5341449498     0.8837379659     0.8797525542
11
# Point -2 Energy = 0.003014999999990664
C       1.3355325944     -0.0000002584     0.2608595709
C       -0.0000000436     0.0000010468     -0.4891267743
H       1.4605973468     -0.8828932469     0.8903065819
H       1.4605995289     0.8828922143     0.8903068718
H       2.1446179846     -0.0000015263     -0.4717363226
C       -1.3355327184     0.0000001750     0.2608594706
H       0.0000002536     -0.8674639157     -1.1546511457
H       -0.0000001623     0.8674666237     -1.1546503512
H       -1.4605967684     -0.8828917670     0.8903080623
H       -2.1446181793     -0.0000023584     -0.4717362393
H       -1.4605998969     0.8828936789     0.8903052945
11
# Point -1 Energy = 0.0008008900000078256
C       1.3022948213     -0.0000001351     0.2601007076
C       -0.0000000219     0.0000005441     -0.5389220441
H       1.3842186419     -0.8818709583     0.8983423153
H       1.3842197767     0.8818704566     0.8983424885
H       2.1573493172     -0.0000008114     -0.4174690786
C       -1.3022948851     0.0000000753     0.2601006586
H       0.0000001274     -0.8708866891     -1.1993330577
H       -0.0000001149     0.8708880631     -1.1993326839
H       -1.3842183207     -0.8818702041     0.8983430414
H       -2.1573494111     -0.0000008757     -0.4174690325
H       -1.3842199913     0.8818712005     0.8983417043
11
# Point 0 Energy = 0
C       1.2672042126     0.0000000000     0.2594997522
C       0.0000000000     0.0000000000     -0.5872081259
H       1.3052750505     -0.8806643351     0.9038259677
H       1.3052750505     0.8806643351     0.9038259677
H       2.1646165232     0.0000000000     -0.3599948239
C       -1.2672042126     -0.0000000181     0.2594997522
H       0.0000000000     -0.8738729764     -1.2430302913
H       -0.0000000606     0.8738729764     -1.2430302913
H       -1.3052750505     -0.8806643351     0.9038259677
H       -2.1646165232     0.0000006841     -0.3599948239
H       -1.3052750505     0.8806643351     0.9038259677
11
# Point 1 Energy = 0.000942590000008181
C       1.2303405459     0.0000001493     0.2590996711
C       0.0000000220     -0.0000005668     -0.6338302426
H       1.2240437874     -0.8792686072     0.9067396725
H       1.2240426025     0.8792690684     0.9067394445
H       2.1662606885     0.0000008854     -0.2995414763
C       -1.2303404790     -0.0000000963     0.2590997173
H       -0.0000001206     -0.8764269282     -1.2855995461
H       -0.0000000072     0.8764255399     -1.2855998856
H       -1.2240441664     -0.8792693811     0.9067389817
H       -2.1662606028     0.0000022923     -0.2995415305
H       -1.2240423309     0.8792683102     0.9067402130
11
# Point 2 Energy = 0.004078679999992119
C       1.1917935440     0.0000003157     0.2589422311
C       0.0000000440     -0.0000011339     -0.6786398311
H       1.1408185971     -0.8776794050     0.9070826409
H       1.1408162108     0.8776802864     0.9070821254
H       2.1621566666     0.0000018202     -0.2363618069
C       -1.1917934074     -0.0000001574     0.2589423204
H       -0.0000002389     -0.8785521507     -1.3269025076
H       0.0000000500     0.8785493884     -1.3269031724
H       -1.1408194124     -0.8776809730     0.9070812986
H       -2.1621565047     0.0000039201     -0.2363619229
H       -1.1408156099     0.8776787553     0.9070836432
11
# Point 3 Energy = 0.010082980000007069
C       1.1516673593     0.0000004971     0.2590661934
C       0.0000000661     -0.0000017107     -0.7214917565
H       1.0559206551     -0.8758920321     0.9048729840
H       1.0559170338     0.8758932855     0.9048721126
H       2.1522182713     0.0000028238     -0.1707399364
C       -1.1516671508     -0.0000002050     0.2590663223
H       -0.0000003550     -0.8802520041     -1.3668026050
H       0.0000001114     0.8802478733     -1.3668035645
H       -1.0559219614     -0.8758944157     0.9048710333
H       -2.1522180439     0.0000055880     -0.1707401209
H       -1.0559160465     0.8758909659     0.9048743565
11
# Point 4 Energy = 0.019965269999985935
C       1.1100765844     0.0000006941     0.2595076346
C       0.0000000882     -0.0000022903     -0.7622509182
H       0.9696838051     -0.8739024457     0.9001481324
H       0.9696789291     0.8739040193     0.9001468345
H       2.1364007937     0.0000038894     -0.1029828279
C       -1.1100763026     -0.0000002376     0.2595077994
H       -0.0000004679     -0.8815296846     -1.4051713600
H       0.0000001759     0.8815242013     -1.4051725867
H       -0.9696856533     -0.8739056644     0.9001456208
H       -2.1364005126     0.0000072869     -0.1029830864
H       -0.9696775005     0.8739008975     0.9001497765
11
# Point 5 Energy = 0.03544882999999288
C       1.0671457733     0.0000009069     0.2602993328
C       0.0000001103     -0.0000028669     -0.8007938606
H       0.8824511838     -0.8717072926     0.8929646401
H       0.8824450446     0.8717091308     0.8929628444
H       2.1147035163     0.0000050112     -0.0334170273
C       -1.0671454172     -0.0000002542     0.2602995295
H       -0.0000005766     -0.8823882968     -1.4418898392
H       0.0000002425     0.8823814859     -1.4418913078
H       -0.8824536203     -0.8717113634     0.8929616195
H       -2.1147031945     0.0000090090     -0.0334173642
H       -0.8824431229     0.8717051960     0.8929664516
11
# Point 6 Energy = 0.05941989999999464
C       1.0230088981     0.0000011356     0.2614703084
C       0.0000001323     -0.0000034353     -0.8370101434
H       0.7945719476     -0.8693039243     0.8833976418
H       0.7945645477     0.8693059687     0.8833952780
H       2.0871712641     0.0000061827     0.0376147329
C       -1.0230084673     -0.0000002534     0.2614705329
H       -0.0000006797     -0.8828309588     -1.4768498200
H       0.0000003100     0.8828228532     -1.4768515071
H       -0.7945750134     -0.8693088611     0.8833941682
H       -2.0871709152     0.0000107459     0.0376143145
H       -0.7945620846     0.8693012129     0.8833995126
