11
# Point -5 Energy = 0.05282330000000002
C       1.3690941820     0.0000004390     0.0916796850
C       0.0672736563     0.0000000984     -0.5930412663
H       1.1442277616     -0.8192278664     0.7809128348
H       1.1442287421     0.8192280453     0.7809139513
H       2.4214229455     -0.0000000480     -0.1762080740
C       -1.1510578923     -0.0000002427     0.4085462456
H       -0.1806043829     -0.8627140411     -1.2159678360
H       -0.1806058433     0.8627137423     -1.2159680348
H       -1.4195763364     -0.8890486048     0.9787283316
H       -1.7948281732     0.0000004816     -0.4772791177
H       -1.4195747200     0.8890486624     0.9787282994
11
# Point -4 Energy = 0.033985610000002
C       1.3509979218     0.0000003652     0.1252198217
C       0.0541029920     0.0000000740     -0.5910339649
H       1.1779211875     -0.8364683102     0.8080029653
H       1.1779220082     0.8364684765     0.8080038368
H       2.3828488476     -0.0000000604     -0.2160019489
C       -1.1740783715     -0.0000001937     0.3814218702
H       -0.1463879010     -0.8666820174     -1.2254015285
H       -0.1463890927     0.8666817989     -1.2254017260
H       -1.4017300988     -0.8902251484     0.9681091923
H       -1.8734787611     0.0000005393     -0.4599826723
H       -1.4017287926     0.8902251421     0.9681091731
11
# Point -3 Energy = 0.019225489999996626
C       1.3316449574     0.0000002832     0.1590373137
C       0.0407545771     0.0000000519     -0.5894012924
H       1.2112964435     -0.8512551755     0.8341631747
H       1.2112970820     0.8512553127     0.8341638087
H       2.3375309436     -0.0000000587     -0.2548864156
C       -1.1974158739     -0.0000001454     0.3528567110
H       -0.1109391171     -0.8698061964     -1.2329715967
H       -0.1109400312     0.8698060493     -1.2329717748
H       -1.3813971352     -0.8902716930     0.9553569945
H       -1.9504357578     0.0000005894     -0.4396588869
H       -1.3813961491     0.8902716487     0.9553569828
11
# Point -2 Energy = 0.00859238000001028
C       1.3111133027     0.0000001942     0.1928818861
C       0.0272507141     0.0000000322     -0.5881964989
H       1.2439731969     -0.8635260482     0.8590769527
H       1.2439736346     0.8635261447     0.8590773612
H       2.2856942782     -0.0000000461     -0.2922202669
C       -1.2208856365     -0.0000000994     0.3229095061
H       -0.0745202837     -0.8720586380     -1.2385140997
H       -0.0745209147     0.8720585518     -1.2385142389
H       -1.3584800637     -0.8888980270     0.9403874481
H       -2.0251188848     0.0000006305     -0.4162304708
H       -1.3584794038     0.8888979713     0.9403874399
11
# Point -1 Energy = 0.0021571499999879507
C       1.2895574388     0.0000000995     0.2264704364
C       0.0136413093     0.0000000150     -0.5874575607
H       1.2754716952     -0.8732939261     0.8824028927
H       1.2754719184     0.8732939755     0.8824030898
H       2.2278214572     -0.0000000257     -0.3274134087
C       -1.2442437090     -0.0000000567     0.2917193095
H       -0.0374314958     -0.8734184283     -1.2418951086
H       -0.0374318412     0.8734183916     -1.2418951888
H       -1.3330308885     -0.8857942342     0.9231844621
H       -2.0967953870     0.0000006620     -0.3896583613
H       -1.3330305580     0.8857941935     0.9231844565
11
# Point 0 Energy = 0
C       1.2672042126     0.0000000000     0.2594997522
C       0.0000000000     0.0000000000     -0.5872081259
H       1.3052750505     -0.8806643351     0.9038259677
H       1.3052750505     0.8806643351     0.9038259677
H       2.1646165232     0.0000000000     -0.3599948239
C       -1.2672042126     -0.0000000181     0.2594997522
H       0.0000000000     -0.8738729764     -1.2430302913
H       -0.0000000606     0.8738729764     -1.2430302913
H       -1.3052750505     -0.8806643351     0.9038259677
H       -2.1646165232     0.0000006841     -0.3599948239
H       -1.3052750505     0.8806643351     0.9038259677
11
# Point 1 Energy = 0.0021571499999879507
C       1.2442436468     -0.0000001038     0.2917193369
C       -0.0136413064     -0.0000000126     -0.5874575981
H       1.3330308874     -0.8857942332     0.9231845702
H       1.3330306593     0.8857941866     0.9231843835
H       2.0967953187     0.0000000274     -0.3896583840
C       -1.2895573738     0.0000000159     0.2264704660
H       0.0374314984     -0.8734184080     -1.2418952262
H       0.0374317197     0.8734184326     -1.2418951244
H       -1.2754716957     -0.8732939249     0.8824030088
H       -2.2278213894     0.0000006973     -0.3274134362
H       -1.2754720256     0.8732939886     0.8824030226
11
# Point 2 Energy = 0.00859238000001028
C       1.2208855151     -0.0000002101     0.3229095584
C       -0.0272507023     -0.0000000220     -0.5881965741
H       1.3584800521     -0.8888980260     0.9403876554
H       1.3584796005     0.8888979394     0.9403872901
H       2.0251187509     0.0000000527     -0.4162305106
C       -1.3111131705     0.0000000452     0.1928819465
H       0.0745202941     -0.8720585969     -1.2385143353
H       0.0745207921     0.8720586346     -1.2385141115
H       -1.2439731925     -0.8635260453     0.8590771918
H       -2.2856941464     0.0000007013     -0.2922203248
H       -1.2439738535     0.8635261932     0.8590772330
11
# Point 3 Energy = 0.019225479999988693
C       1.1974156961     -0.0000003184     0.3528567848
C       -0.0407545514     -0.0000000287     -0.5894014056
H       1.3813970988     -0.8902716948     0.9553572936
H       1.3813964330     0.8902715759     0.9553567538
H       1.9504355641     0.0000000752     -0.4396589380
C       -1.3316447568     0.0000000701     0.1590374050
H       0.1109391400     -0.8698061349     -1.2329719516
H       0.1109399067     0.8698061740     -1.2329715856
H       -1.2112964213     -0.8512551695     0.8341635398
H       -2.3375307552     0.0000006971     -0.2548865038
H       -1.2112974146     0.8512554201     0.8341636265
11
# Point 4 Energy = 0.033985599999994065
C       1.1740781396     -0.0000004274     0.3814219626
C       -0.0541029479     -0.0000000322     -0.5910341165
H       1.4017300198     -0.8902251577     0.9681095779
H       1.4017291560     0.8902250145     0.9681088637
H       1.8734785151     0.0000000937     -0.4599827295
C       -1.3509976527     0.0000000907     0.1252199430
H       0.1463879405     -0.8666819363     -1.2254020037
H       0.1463889656     0.8666819657     -1.2254014772
H       -1.1779211282     -0.8364682976     0.8080034542
H       -2.3828486123     0.0000006847     -0.2160020638
H       -1.1779224561     0.8364686680     0.8080036082
11
# Point 5 Energy = 0.05282326000001092
C       1.1510576080     -0.0000005356     0.4085463539
C       -0.0672735902     -0.0000000324     -0.5930414563
H       1.4195761959     -0.8890486282     0.9787288007
H       1.4195751566     0.8890484676     0.9787279096
H       1.7948278832     0.0000001080     -0.4772791776
C       -1.3690938455     0.0000001073     0.0916798346
H       0.1806044421     -0.8627139417     -1.2159684320
H       0.1806057132     0.8627139509     -1.2159677290
H       -1.1442276420     -0.8192278406     0.7809134394
H       -2.4214226734     0.0000006639     -0.1762082098
H       -1.1442293085     0.8192283467     0.7809136856
