11
# Point -4 Energy = 0.05450120999998376
C       1.2719207564     0.0000014274     0.1836603990
C       0.0000000158     0.0000028119     -0.7043403813
H       1.2570339973     -0.7509941658     0.9811929239
H       1.2570310013     0.7509949880     0.9811945719
H       2.0938460456     -0.0000056152     -0.5254004548
C       -1.2719208637     0.0000019706     0.1836607093
H       -0.0000003337     -1.0128461278     -1.0979524497
H       -0.0000002683     1.0128505802     -1.0979554946
H       -1.2570346555     -0.7509953819     0.9811915919
H       -2.0938463409     -0.0000066115     -0.5253999731
H       -1.2570294149     0.7509967901     0.9811935763
11
# Point -3 Energy = 0.030807320000008076
C       1.2719816164     0.0000010595     0.2023898971
C       0.0000000126     0.0000021102     -0.6735953924
H       1.2702428155     -0.7860604870     0.9641976706
H       1.2702406349     0.7860611703     0.9641989822
H       2.1125940427     -0.0000042019     -0.4863720983
C       -1.2719816841     0.0000014477     0.2023901477
H       -0.0000002502     -0.9844765132     -1.1370925742
H       -0.0000002302     0.9844797197     -1.1370947485
H       -1.2702433194     -0.7860613497     0.9641966293
H       -2.1125942523     -0.0000047684     -0.4863717105
H       -1.2702394463     0.7860624788     0.9641982158
11
# Point -2 Energy = 0.01376263999999594
C       1.2713019774     0.0000006984     0.2213107135
C       0.0000000095     0.0000014094     -0.6436348301
H       1.2828364748     -0.8194220798     0.9456273420
H       1.2828350700     0.8194225799     0.9456282631
H       2.1306691311     -0.0000028009     -0.4459278860
C       -1.2713020135     0.0000009415     0.2213108916
H       -0.0000001664     -0.9516622856     -1.1742974255
H       -0.0000001833     0.9516643454     -1.1742987998
H       -1.2828368177     -0.8194226196     0.9456266206
H       -2.1306692626     -0.0000029443     -0.4459276098
H       -1.2828342798     0.8194234217     0.9456277394
11
# Point -1 Energy = 0.003459609999993063
C       1.2697377075     0.0000003459     0.2403691894
C       0.0000000056     0.0000007123     -0.6147624382
H       1.2945552835     -0.8509859216     0.9254997856
H       1.2945546174     0.8509861940     0.9255002694
H       2.1480279650     -0.0000014113     -0.4038554946
C       -1.2697377208     0.0000004541     0.2403692836
H       -0.0000000827     -0.9146941864     -1.2096094934
H       -0.0000001270     0.9146951902     -1.2096101485
H       -1.2945554583     -0.8509861721     0.9254994120
H       -2.1480280264     -0.0000011384     -0.4038553476
H       -1.2945542243     0.8509865993     0.9255000012
11
# Point 0 Energy = 0
C       1.2672042126     0.0000000000     0.2594997522
C       0.0000000000     0.0000000000     -0.5872081259
H       1.3052750505     -0.8806643351     0.9038259677
H       1.3052750505     0.8806643351     0.9038259677
H       2.1646165232     0.0000000000     -0.3599948239
C       -1.2672042126     -0.0000000181     0.2594997522
H       0.0000000000     -0.8738729764     -1.2430302913
H       -0.0000000606     0.8738729764     -1.2430302913
H       -1.3052750505     -0.8806643351     0.9038259677
H       -2.1646165232     0.0000006841     -0.3599948239
H       -1.3052750505     0.8806643351     0.9038259677
11
# Point 1 Energy = 0.0034696700000012015
C       1.2636819204     -0.0000003332     0.2786252143
C       -0.0000000079     -0.0000007015     -0.5611116101
H       1.3150086103     -0.9083745122     0.8806026625
H       1.3150092473     0.9083741991     0.8806021444
H       2.1803752878     0.0000014008     -0.3142507503
C       -1.2636819174     -0.0000004680     0.2786251109
H       0.0000000802     -0.8295084946     -1.2745014401
H       0.0000000173     0.8295075606     -1.2745008826
H       -1.3150084281     -0.9083743030     0.8806030596
H       -2.1803752359     0.0000024896     -0.3142509152
H       -1.3150096348     0.9083738284     0.8806024256
11
# Point 2 Energy = 0.013934709999986694
C       1.2591661570     -0.0000006477     0.2976700700
C       -0.0000000186     -0.0000013764     -0.5365793576
H       1.3238058631     -0.9340394798     0.8558182078
H       1.3238071395     0.9340388176     0.8558171487
H       2.1952263640     0.0000027667     -0.2665365103
C       -1.2591661617     -0.0000008874     0.2976698550
H       0.0000001602     -0.7819187909     -1.3039576439
H       0.0000001040     0.7819169984     -1.3039566399
H       -1.3238054900     -0.9340391019     0.8558190249
H       -2.1952262707     0.0000042510     -0.2665368584
H       -1.3238079074     0.9340381165     0.8558177228
11
# Point 3 Energy = 0.03146730000000275
C       1.2536469192     -0.0000009461     0.3165682533
C       -0.0000000325     -0.0000020423     -0.5137057268
H       1.3317097437     -0.9575893253     0.8294520813
H       1.3317116275     0.9575882775     0.8294504599
H       2.2090632766     0.0000041274     -0.2167511051
C       -1.2536469430     -0.0000012794     0.3165679195
H       0.0000002393     -0.7314319875     -1.3313456223
H       0.0000002001     0.7314293784     -1.3313442651
H       -1.3317091712     -0.9575888234     0.8294533397
H       -2.2090631537     0.0000059994     -0.2167516549
H       -1.3317127665     0.9575872872     0.8294513393
11
# Point 4 Energy = 0.05617249000000868
C       1.2471280539     -0.0000012258     0.3352634455
C       -0.0000000498     -0.0000026965     -0.4925429513
H       1.3387787638     -0.9789611197     0.8014623931
H       1.3387812285     0.9789596530     0.8014601938
H       2.2217580838     0.0000054809     -0.1647980242
C       -1.2471281084     -0.0000016412     0.3352629866
H       0.0000003179     -0.6783850175     -1.3565956765
H       0.0000003052     0.6783816231     -1.3565940592
H       -1.3387779837     -0.9789605402     0.8014641137
H       -2.2217579442     0.0000077330     -0.1647987946
H       -1.3387827276     0.9789584168     0.8014613920
