11
# Point -15 Energy = 0.0019469499999900108
C       1.2008770713     -0.4045218405     0.2668201745
C       0.0000014135     0.0000093587     -0.5799213796
H       2.0730240657     -0.5352123045     -0.3728173281
H       1.0345008427     -1.3487473750     0.7943364519
H       1.4456179671     0.3577639306     1.0071914695
C       -1.2008774852     0.4045164548     0.2668272872
H       -0.2054690929     -0.8498793488     -1.2350755567
H       0.2054739443     0.8499174645     -1.2350504562
H       -1.0345325252     1.3487616807     0.7943169513
H       -1.4455782055     -0.3577631715     1.0072182551
H       -2.0730380564     0.5351558170     -0.3728008500
11
# Point -14 Energy = 0.001414530000005243
C       1.2095860529     -0.3776940926     0.2666715994
C       0.0000012399     0.0000087421     -0.5800658763
H       2.0459476521     -0.6375806556     -0.3815328087
H       1.0089629970     -1.2411755188     0.9080062455
H       1.5287196399     0.4485980050     0.9026921173
C       -1.2095862954     0.3776889229     0.2666779966
H       -0.1914740415     -0.8530753066     -1.2353069094
H       0.1914781568     0.8531110044     -1.2352833705
H       -1.0089885041     1.2411929682     0.9079891475
H       -1.5286820840     -0.4486020985     0.9027189499
H       -2.0459648741     0.6375286955     -0.3815220725
11
# Point -13 Energy = 0.0018401899999958005
C       1.2176695821     -0.3507694172     0.2663652328
C       0.0000010741     0.0000081148     -0.5803683966
H       2.0121369601     -0.7378680764     -0.3712405783
H       0.9905113268     -1.1180626708     1.0123301956
H       1.6089349092     0.5227149883     0.7889195668
C       -1.2176696876     0.3507644668     0.2663709340
H       -0.1774950203     -0.8560318585     -1.2356902557
H       0.1774984561     0.8560650979     -1.2356682925
H       -0.9905310011     1.1180822350     1.0123158849
H       -1.6089001274     -0.5227233964     0.7889456911
H       -2.0121565325     0.7378211824     -0.3712349633
11
# Point -12 Energy = 0.003105299999972999
C       1.2251265347     -0.3237747076     0.2659206301
C       0.0000009172     0.0000074800     -0.5808093951
H       1.9724068335     -0.8334182073     -0.3421541387
H       0.9791237118     -0.9810147941     1.1049470201
H       1.6855385021     0.5790860887     0.6683997186
C       -1.2251265346     0.3237699859     0.2659256571
H       -0.1635444418     -0.8587498981     -1.2362060451
H       0.1635472565     0.8587806456     -1.2361856731
H       -0.9791380078     0.9810354866     1.1049357096
H       -1.6855069317     -0.5790981631     0.6684244627
H       -1.9724279004     0.8333767494     -0.3421529273
11
# Point -11 Energy = 0.005074970000009671
C       1.2319578024     -0.2967343613     0.2653612034
C       0.0000007703     0.0000068408     -0.5813654687
H       1.9275678218     -0.9216328850     -0.2949085233
H       0.9746948011     -0.8319490188     1.1837575958
H       1.7578960372     0.6170391744     0.5438082050
C       -1.2319577250     0.2967298838     0.2653655805
H       -0.1496329197     -0.8612312239     -1.2368308695
H       0.1496351728     0.8612594526     -1.2368121052
H       -0.9747042658     0.8319699230     1.1837493324
H       -1.7578679838     -0.6170541805     0.5438310009
H       -1.9275895718     0.9215970608     -0.2949109325
11
# Point -10 Energy = 0.0074599599999913835
C       1.2381660598     -0.2696698965     0.2647133991
C       0.0000006344     0.0000062003     -0.5820101788
H       1.8784156180     -1.0000305425     -0.2305460060
H       0.9770496978     -0.6730564727     1.2469721157
H       1.8254593328     0.6362785368     0.4179109978
C       -1.2381659302     0.2696656836     0.2647171537
H       -0.1357690470     -0.8634784148     -1.2375382861
H       0.1357707992     0.8635041043     -1.2375211471
H       -0.9770549511     0.6730767673     1.2469667921
H       -1.8254349730     -0.6362956785     0.4179313971
H       -1.8784373012     1.0000003788     -0.2305512186
11
# Point -9 Energy = 0.009748130000005517
C       1.2437554859     -0.2425996262     0.2640057961
C       0.0000005103     0.0000055609     -0.5827149531
H       1.8257234137     -1.0663027681     -0.1504926742
H       0.9859564325     -0.5067580709     1.2931503126
H       1.8877600775     0.6368962991     0.2935030106
C       -1.2437553256     0.2425957029     0.2640089595
H       -0.1219592116     -0.8654946857     -1.2382997189
H       0.1219605237     0.8655178214     -1.2382842230
H       -0.9859581472     0.5067770514     1.2931476834
H       -1.8877394639     -0.6369147455     0.2935206962
H       -1.8257443558     1.0662781268     -0.1504998704
11
# Point -8 Energy = 0.011430379999993079
C       1.2487314454     -0.2155384083     0.2632681534
C       0.0000003987     0.0000049248     -0.5834500384
H       1.7702368930     -1.1183676007     -0.0565263936
H       1.0011368240     -0.3356542623     1.3212338442
H       1.9444025206     0.6193750508     0.1733460607
C       -1.2487312725     0.2155348028     0.2632707611
H       -0.1082074577     -0.8672837256     -1.2390854112
H       0.1082083904     0.8673042981     -1.2390715770
H       -1.0011357058     0.3356713596     1.3212335470
H       -1.9443855897     -0.6193939632     0.1733608532
H       -1.7702565072     1.1183481899     -0.0565347806
11
# Point -7 Energy = 0.011931270000005156
C       1.2531001391     -0.1884974885     0.2625304334
C       0.0000003003     0.0000042939     -0.5841854770
H       1.7126714775     -1.1544182080     0.0492631167
H       1.0222754934     -0.1624699067     1.3305701130
H       1.9950557920     0.5845815101     0.0601075651
C       -1.2530999680     0.1884942315     0.2625325252
H       -0.0945154061     -0.8688495210     -1.2398654024
H       0.0945160196     0.8688675253     -1.2398532484
H       -1.0222722619     0.1624847003     1.3305716928
H       -1.9950423731     -0.5846000685     0.0601194237
H       -1.7126892733     1.1544035976     0.0492542769
11
# Point -6 Energy = 0.011076449999990245
C       1.2568682330     -0.1614844520     0.2618218310
C       0.0000002154     0.0000036692     -0.5848920775
H       1.6537113678     -1.1729657048     0.1645212006
H       1.0490269622     0.0100044036     1.3209269843
H       2.0394463704     0.5337512424     -0.0436986676
C       -1.2568680751     0.1614815755     0.2618234517
H       -0.0808822425     -0.8701961727     -1.2406104989
H       0.0808825957     0.8702116073     -1.2406000434
H       -1.0490223329     -0.0099921767     1.3209299198
H       -2.0394361978     -0.5337686714     -0.0436896481
H       -1.6537269570     1.1729553456     0.1645125670
11
# Point -5 Energy = 0.00909183999999641
C       1.2600424812     -0.1345032960     0.2611698376
C       0.0000001444     0.0000030516     -0.5855423517
H       1.5940099044     -1.1728750031     0.2866811211
H       1.0810209092     0.1789731575     1.2924980692
H       2.0773511117     0.4684646985     -0.1357682348
C       -1.2600423445     0.1345008322     0.2611710369
H       -0.0673047804     -0.8713277085     -1.2412932102
H       0.0673049310     0.8713405746     -1.2412844710
H       -1.0810155765     -0.1789635985     1.2925018016
H       -2.0773438361     -0.4684802911     -0.1357618330
H       -1.5940230049     1.1728682489     0.2866732532
11
# Point -4 Energy = 0.006488029999985656
C       1.2626293537     -0.1075546295     0.2605993655
C       0.0000000874     0.0000024413     -0.5861113891
H       1.5341908014     -1.1533927575     0.4130216672
H       1.1178657751     0.3416973855     1.2458984552
H       2.1085911176     0.3906150603     -0.2140572899
C       -1.2626292435     0.1075526095     0.2606001978
H       -0.0537776046     -0.8722479024     -1.2418886247
H       0.0537776084     0.8722582029     -1.2418816188
H       -1.1178603978     -0.3416904352     1.2459024169
H       -2.1085863198     -0.3906281993     -0.2140531699
H       -1.5342012385     1.1533888905     0.4130150087
11
# Point -3 Energy = 0.0039208799999954635
C       1.2646346885     -0.0806359995     0.2601319597
C       0.0000000445     0.0000018382     -0.5865776461
H       1.4748498628     -1.1141666625     0.5407282208
H       1.1591509764     0.4955552555     1.1821509759
H       2.1330266056     0.3023686015     -0.2768279081
C       -1.2646346072     0.0806344525     0.2601324844
H       -0.0402932931     -0.8729601046     -1.2423751977
H       0.0402932044     0.8729678434     -1.2423699409
H       -1.1591461640     -0.4955507001     1.1821546187
H       -2.1330238100     -0.3023787779     -0.2768256364
H       -1.4748575683     1.1141649196     0.5407230885
11
# Point -2 Energy = 0.0018096499999984417
C       1.2660633800     -0.0537423380     0.2597851199
C       0.0000000158     0.0000012417     -0.5869236239
H       1.4165568792     -1.0552555708     0.6669559105
H       1.2044480183     0.6381003042     1.1026633288
H       2.1505528345     0.2061184710     -0.3226866620
C       -1.2660633280     0.0537412902     0.2597854003
H       -0.0268427153     -0.8734670912     -1.2427354299
H       0.0268425864     0.8734722725     -1.2427319364
H       -1.2044443196     -0.6380977862     1.1026661510
H       -2.1505515229     -0.2061252989     -0.3226857271
H       -1.4165618890     1.0552551714     0.6669524878
11
# Point -1 Energy = 0.0004933500000134927
C       1.2669191208     -0.0268665140     0.2595717506
C       0.0000000012     0.0000006508     -0.5871364178
H       1.3598574965     -0.9771301332     0.7888934366
H       1.2533107857     0.7671158642     1.0091965518
H       2.1610970580     0.1044329858     -0.3506155506
C       -1.2669190966     0.0268659875     0.2595718542
H       -0.0134153948     -0.8737709396     -1.2429564170
H       0.0134152767     0.8737735675     -1.2429546990
H       -1.2533086784     -0.7671148968     1.0091981226
H       -2.1610966831     -0.1044362131     -0.3506153852
H       -1.3598599466     0.9771303069     0.7888917725
11
# Point 0 Energy = 0
C       1.2672042126     0.0000000000     0.2594997522
C       0.0000000000     0.0000000000     -0.5872081259
H       1.3052750505     -0.8806643351     0.9038259677
H       1.3052750505     0.8806643351     0.9038259677
H       2.1646165232     0.0000000000     -0.3599948239
C       -1.2672042126     -0.0000000181     0.2594997522
H       0.0000000000     -0.8738729764     -1.2430302913
H       -0.0000000606     0.8738729764     -1.2430302913
H       -1.3052750505     -0.8806643351     0.9038259677
H       -2.1646165232     0.0000006841     -0.3599948239
H       -1.3052750505     0.8806643351     0.9038259677
11
# Point 1 Energy = 0.0004933500000134927
C       1.2669194290     0.0268664811     0.2595717915
C       0.0000000129     -0.0000005195     -0.5871360819
H       1.2533116200     -0.7671159614     1.0091965358
H       1.3598584522     0.9771300508     0.7888934553
H       2.1610969946     -0.1044331084     -0.3506160518
C       -1.2669194492     -0.0268659174     0.2595717607
H       0.0134154918     -0.8737735178     -1.2429542860
H       -0.0134154461     0.8737710472     -1.2429561472
H       -1.3598606347     -0.9771303054     0.7888916248
H       -2.1610968045     0.1044372719     -0.3506156107
H       -1.2533097267     0.7671151449     1.0091980285
11
# Point 2 Energy = 0.0018096499999984417
C       1.2660639967     0.0537423358     0.2597851980
C       0.0000000406     -0.0000011020     -0.5869229566
H       1.2044498187     -0.6381004383     1.1026633882
H       1.4165586330     1.0552554515     0.6669558628
H       2.1505527204     -0.2061186592     -0.3226876459
C       -1.2660640329     -0.0537412140     0.2597852079
H       0.0268428807     -0.8734722492     -1.2427311748
H       -0.0268426777     0.8734672309     -1.2427348349
H       -1.4165633400     -1.0552552251     0.6669521108
H       -2.1505517846     0.2061263276     -0.3226861799
H       -1.2044463155     0.6380982080     1.1026660433
11
# Point 3 Energy = 0.003920869999987531
C       1.2646356151     0.0806360468     0.2601320627
C       0.0000000824     -0.0000016851     -0.5865766562
H       1.1591537730     -0.4955554360     1.1821511546
H       1.4748523413     1.1141664684     0.5407280642
H       2.1330264636     -0.3023688946     -0.2768293477
C       -1.2646356626     -0.0806343659     0.2601321880
H       0.0402935727     -0.8729678452     -1.2423688318
H       -0.0402931640     0.8729602782     -1.2423742937
H       -1.4748596977     -1.1141649739     0.5407224192
H       -2.1330242506     0.3023797578     -0.2768263101
H       -1.1591491338     0.4955513155     1.1821545697
11
# Point 4 Energy = 0.006487999999990279
C       1.2626305926     0.1075547428     0.2605994752
C       0.0000001384     -0.0000022703     -0.5861100893
H       1.1178695828     -0.3416976147     1.2458987914
H       1.5341939271     1.1533924458     0.4130213658
H       2.1085909807     -0.3906154919     -0.2140591462
C       -1.2626306470     -0.1075525075     0.2605997904
H       0.0537780441     -0.8722582297     -1.2418801677
H       -0.0537773808     0.8722481114     -1.2418874318
H       -1.5342039584     -1.1533888856     0.4130139924
H       -2.1085869943     0.3906291131     -0.2140540552
H       -1.1178643458     0.3416912525     1.2459024941
11
# Point 5 Energy = 0.009091779999991445
C       1.2600440356     0.1345034889     0.2611699310
C       0.0000002087     -0.0000028595     -0.5855407582
H       1.0810257265     -0.1789734308     1.2924985935
H       1.5940135989     1.1728745277     0.2866806475
H       2.0773510216     -0.4684652940     -0.1357704586
C       -1.2600440934     -0.1345007092     0.2611705091
H       0.0673054257     -0.8713406274     -1.2412826871
H       -0.0673044580     0.8713279539     -1.2412917516
H       -1.5940262284     -1.1728681218     0.2866718458
H       -2.0773448130     0.4684811239     -0.1357629177
H       -1.0810204847     0.1789646143     1.2925020651
11
# Point 6 Energy = 0.011076339999974039
C       1.2568701074     0.1614847338     0.2618218809
C       0.0000002935     -0.0000034540     -0.5848902096
H       1.0490327717     -0.0100047108     1.3209277183
H       1.6537155546     1.1729650185     0.1645205380
H       2.0394463755     -0.5337520174     -0.0437012014
C       -1.2568701664     -0.1614814251     0.2618227929
H       0.0808831391     -0.8702116889     -1.2405979392
H       -0.0808818158     0.8701964548     -1.2406088001
H       -1.6537306029     -1.1729550313     0.1645107367
H       -2.0394375555     0.5337694106     -0.0436909171
H       -1.0490281618     0.0099933758     1.3209304195
11
# Point 7 Energy = 0.011931129999979362
C       1.2531023393     0.1884978642     0.2625304092
C       0.0000003928     -0.0000040551     -0.5841833559
H       1.0222822623     0.1624695800     1.3305710676
H       1.7126760849     1.1544172639     0.0492622597
H       1.9950559455     -0.5845824695     0.0601047844
C       -1.2531023988     -0.1884940461     0.2625317235
H       0.0945165993     -0.8688676403     -1.2398508393
H       -0.0945148676     0.8688498396     -1.2398634907
H       -1.7126932693     -1.1544030310     0.0492520053
H       -1.9950441961     0.5846007042     0.0601179883
H       -1.0222789528     -0.1624833440     1.3305724666
11
# Point 8 Energy = 0.011430239999995706
C       1.2487339791     0.2155388777     0.2632680228
C       0.0000005067     -0.0000046637     -0.5834476868
H       1.0011445063     0.3356539333     1.3212350188
H       1.7702418558     1.1183663548     -0.0565274373
H       1.9444028783     -0.6193761877     0.1733430991
C       -1.2487340405     -0.2155345734     0.2632698041
H       0.1082089918     -0.8673044533     -1.2390688798
H       -0.1082067972     0.8672840795     -1.2390833146
H       -1.7702607927     -1.1183473069     -0.0565374970
H       -1.9443879643     0.6193944879     0.1733592715
H       -1.0011431839     -0.3356698822     1.3212346182
11
# Point 9 Energy = 0.009747999999987655
C       1.2437583626     0.2426001833     0.2640055255
C       0.0000006353     -0.0000052805     -0.5827123941
H       0.9859649707     0.5067577578     1.2931516948
H       1.8257286757     1.0663011814     -0.1504938840
H       1.8877606957     -0.6368975943     0.2934999336
C       -1.2437584297     -0.2425954191     0.2640078350
H       0.1219611302     -0.8655180266     -1.2382812559
H       -0.1219584162     0.8654950734     -1.2382974656
H       -1.8257488833     -1.0662768662     -0.1505030201
H       -1.8877424755     0.6369151537     0.2935189904
H       -0.9859663260     -0.5067754969     1.2931490593
11
# Point 10 Energy = 0.007459860000011531
C       1.2381692913     0.2696705298     0.2647129551
C       0.0000007783     -0.0000059055     -0.5820074352
H       0.9770590260     0.6730561926     1.2469736807
H       1.8784211325     1.0000285829     -0.2305473483
H       1.8254602673     -0.6362799596     0.4179078677
C       -1.2381693706     -0.2696653334     0.2647158500
H       0.1357713919     -0.8635043720     -1.2375179278
H       -0.1357681005     0.8634788340     -1.2375359033
H       -1.8784420367     -0.9999986837     -0.2305547746
H       -1.8254387027     0.6362959662     0.4179295911
H       -0.9770637374     -0.6730751853     1.2469684633
11
# Point 11 Energy = 0.0050749100000047065
C       1.2319614031     0.2967350533     0.2653605543
C       0.0000009357     -0.0000065384     -0.5813625616
H       0.9747048480     0.8319487856     1.1837593069
H       1.9275735524     0.9216305298     -0.2949099521
H       1.7578973415     -0.6170406824     0.5438050774
C       -1.2319615039     -0.2967294534     0.2653640877
H       0.1496357307     -0.8612597986     -1.2368086508
H       -0.1496318024     0.8612316721     -1.2368283823
H       -1.9275944944     -0.9215948804     -0.2949148525
H       -1.7578725069     0.6170543445     0.5438291201
H       -0.9747135643     -0.8319683662     1.1837512718
11
# Point 12 Energy = 0.0031052499999759675
C       1.2251305220     0.3237754352     0.2659197463
C       0.0000011070     -0.0000071787     -0.5808063435
H       0.9791344038     0.9810146167     1.1049488295
H       1.9724127541     0.8334154454     -0.3421555967
H       1.6855402271     -0.5790876293     0.6683966392
C       -1.2251306567     -0.3237694602     0.2659239673
H       0.1635477565     -0.8587810889     -1.2361819986
H       -0.1635431308     0.8587503728     -1.2362034763
H       -1.9724330006     -0.8333740400     -0.3421571546
H       -1.6855123166     0.5790982000     0.6684225334
H       -0.9791477263     -0.9810340070     1.1049378729
11
# Point 13 Energy = 0.0018401499999924908
C       1.2176739762     0.3507701522     0.2663640884
C       0.0000012918     -0.0000078249     -0.5803652163
H       0.9905225909     1.1180625507     1.0123320453
H       2.0121430543     0.7378649102     -0.3712419990
H       1.6089371034     -0.5227164998     0.7889165688
C       -1.2176741604     -0.3507638289     0.2663690425
H       0.1774988734     -0.8560656609     -1.2356644101
H       -0.1774934893     0.8560323571     -1.2356876243
H       -2.0121618105     -0.7378179101     -0.3712394275
H       -1.6089064358     0.5227233017     0.7889437401
H       -0.9905410547     -1.1180808812     1.0123182110
11
# Point 14 Energy = 0.0014144900000019334
C       1.2095908773     0.3776948020     0.2666701729
C       0.0000014894     -0.0000084756     -0.5800625790
H       1.0089747638     1.2411754484     0.9080080687
H       2.0459539130     0.6375771034     -0.3815341183
H       1.5287223500     -0.4485994186     0.9026892186
C       -1.2095911297     -0.3776881552     0.2666759019
H       0.1914784650     -0.8531117129     -1.2352792887
H       -0.1914722612     0.8530758276     -1.2353042301
H       -2.0459703377     -0.6375248377     -0.3815266913
H       -1.5286893717     0.4486018657     0.9027170043
H       -1.0089988187     -1.2411917812     0.9079915599
11
# Point 15 Energy = 0.0019468999999929792
C       1.2008823528     0.4045224876     0.2668184494
C       0.0000016990     -0.0000091286     -0.5799179726
H       1.0345130478     1.3487473361     0.7943381749
H       2.0730304948     0.5352084027     -0.3728184482
H       1.4456212394     -0.3577651731     1.0071886701
C       -1.2008826953     -0.4045155384     0.2668249925
H       0.2054741157     -0.8499183471     -1.2350461794
H       -0.2054670316     0.8498798914     -1.2350728390
H       -2.0730437189     -0.5351513647     -0.3728055307
H       -1.4455865244     0.3577627910     1.0072163418
H       -1.0345430400     -1.3487606908     0.7943193600
