11
# Point -3 Energy = 0.06489239999999086
C       1.2446915635     0.0000000274     0.2443821380
C       -0.0187913439     0.0000001219     -0.5873549193
H       1.2980363870     -0.9889592260     0.9730217028
H       1.2980364962     0.9889593555     0.9730217110
H       2.2371751732     -0.0000000230     -0.4398211722
C       -1.2895713418     0.0000002766     0.2744138394
H       -0.0240928992     -0.8738744014     -1.2431573301
H       -0.0240928789     0.8738743759     -1.2431571886
H       -1.3147170866     -0.7717259834     0.8349917651
H       -2.0919571444     0.0000008684     -0.2802864710
H       -1.3147169856     0.7717252741     0.8349909437
11
# Point -2 Energy = 0.028185519999979647
C       1.2522124163     0.0000000182     0.2494413907
C       -0.0125289484     0.0000000813     -0.5872731156
H       1.3002062880     -0.9529317723     0.9499158163
H       1.3002063586     0.9529318586     0.9499158220
H       2.2129986550     -0.0000000147     -0.4132024883
C       -1.2821314668     0.0000001787     0.2694682283
H       -0.0160647714     -0.8738739733     -1.2430868030
H       -0.0160647780     0.8738739559     -1.2430867091
H       -1.3113232393     -0.8081088018     0.8578957265
H       -2.1161874076     0.0000008063     -0.3068380288
H       -1.3113231669     0.8081083291     0.8578951799
11
# Point -1 Energy = 0.006951600000007829
C       1.2597165645     0.0000000091     0.2544811442
C       -0.0062648916     0.0000000407     -0.5872242021
H       1.3026187645     -0.9168333946     0.9268505528
H       1.3026187986     0.9168334378     0.9268505558
H       2.1888125855     -0.0000000070     -0.3865928430
C       -1.2746758517     0.0000000804     0.2644962754
H       -0.0080332389     -0.8738734983     -1.2430444789
H       -0.0080332725     0.8738734894     -1.2430444323
H       -1.3081761807     -0.8444216687     0.8808404668
H       -2.1404071962     0.0000007449     -0.3334082138
H       -1.3081761420     0.8444214324     0.8808401940
11
# Point 0 Energy = 0
C       1.2672042126     0.0000000000     0.2594997522
C       0.0000000000     0.0000000000     -0.5872081259
H       1.3052750505     -0.8806643351     0.9038259677
H       1.3052750505     0.8806643351     0.9038259677
H       2.1646165232     0.0000000000     -0.3599948239
C       -1.2672042126     -0.0000000181     0.2594997522
H       0.0000000000     -0.8738729764     -1.2430302913
H       -0.0000000606     0.8738729764     -1.2430302913
H       -1.3052750505     -0.8806643351     0.9038259677
H       -2.1646165232     0.0000006841     -0.3599948239
H       -1.3052750505     0.8806643351     0.9038259677
11
# Point 1 Energy = 0.006951439999994591
C       1.2746755942     -0.0000000090     0.2644955232
C       0.0062649006     -0.0000000407     -0.5872248695
H       1.3081762565     -0.8444248396     0.8808421018
H       1.3081762248     0.8444247966     0.8808420985
H       2.1404101660     0.0000000063     -0.3334109019
C       -1.2597162895     -0.0000001169     0.2544803919
H       0.0080332457     -0.8738724077     -1.2430442178
H       0.0080331581     0.8738724170     -1.2430442639
H       -1.3026188628     -0.9168365528     0.9268522007
H       -2.1888155476     0.0000006240     -0.3865955169
H       -1.3026189066     0.9168367889     0.9268524727
11
# Point 2 Energy = 0.02818425000000957
C       1.2821309692     -0.0000000180     0.2694667241
C       0.0125289842     -0.0000000815     -0.5872744502
H       1.3113233682     -0.8081151564     0.8578989835
H       1.3113233073     0.8081150703     0.8578989764
H       2.1161933547     0.0000000118     -0.3068434193
C       -1.2522118489     -0.0000002159     0.2494398863
H       0.0160647987     -0.8738717920     -1.2430862806
H       0.0160646841     0.8738718111     -1.2430863723
H       -1.3002065070     -0.9529380758     0.9499191248
H       -2.2130045713     0.0000005646     -0.4132078218
H       -1.3002065998     0.9529385479     0.9499196679
11
# Point 3 Energy = 0.0648880099999758
C       1.2895706215     -0.0000000270     0.2744115838
C       0.0187914245     -0.0000001223     -0.5873569208
H       1.3147172461     -0.7717355341     0.8349966307
H       1.3147171585     0.7717354051     0.8349966195
H       2.0919660763     0.0000000165     -0.2802945781
C       -1.2446906862     -0.0000003151     0.2443798819
H       0.0240929607     -0.8738711295     -1.2431565461
H       0.0240928190     0.8738711587     -1.2431566829
H       -1.2980367492     -0.9889686619     0.9730266843
H       -2.2371840357     0.0000005059     -0.4398291512
H       -1.2980368960     0.9889693697     0.9730274978

    This sampling was finished on:   2020-07-02 17:54:42
=------------------------------------------------------------------------------=
Sampling finished.
=------------------------------------------------------------------------------=