11
# Point -3 Energy = 0.06900532000000226
C       1.2669622299     -0.0067751673     0.2590526964
C       0.0000000055     0.0420058784     -0.5866114240
H       1.3035629529     -0.8333015368     0.8464920314
H       1.3066444274     0.9267124727     0.9617070517
H       2.1643498491     0.0110334781     -0.3602216294
C       -1.2669622224     -0.0067746129     0.2590527505
H       -0.0000000735     -0.9919454397     -1.3717654591
H       -0.0000000110     0.7546017039     -1.1146383036
H       -1.3035631373     -0.8333022449     0.8464928993
H       -2.1643498747     0.0110346198     -0.3602215849
H       -1.3066442065     0.9267115148     0.9617059908
11
# Point -2 Energy = 0.029156000000000404
C       1.2670966311     -0.0045200255     0.2593010706
C       0.0000000020     0.0280041477     -0.5869429890
H       1.3041768902     -0.8492366714     0.8655409787
H       1.3062206324     0.9115078269     0.9423540078
H       2.1644979986     0.0073532134     -0.3600955646
C       -1.2670966256     -0.0045196368     0.2593011061
H       -0.0000000340     -0.9527129745     -1.3288276749
H       -0.0000000381     0.7945005111     -1.1573852444
H       -1.3041770047     -0.8492371113     0.8655415675
H       -2.1644980165     0.0073541698     -0.3600955339
H       -1.3062204961     0.9115072166     0.9423532951
11
# Point -1 Energy = 0.0070710199999979295
C       1.2671773144     -0.0022609847     0.2594500875
C       0.0000000001     0.0140021347     -0.5871418377
H       1.3047465915     -0.8650239654     0.8846526210
H       1.3057653355     0.8961586819     0.9230600698
H       2.1645868923     0.0036758681     -0.3600199972
C       -1.2671773113     -0.0022607623     0.2594501051
H       0.0000000028     -0.9133570995     -1.2859136028
H       -0.0000000671     0.8342558719     -1.2001850773
H       -1.3047466345     -0.8650241389     0.8846529292
H       -2.1645869017     0.0036766389     -0.3600199810
H       -1.3057652827     0.8961584214     0.9230597023
11
# Point 0 Energy = 0
C       1.2672042126     0.0000000000     0.2594997522
C       0.0000000000     0.0000000000     -0.5872081259
H       1.3052750505     -0.8806643351     0.9038259677
H       1.3052750505     0.8806643351     0.9038259677
H       2.1646165232     0.0000000000     -0.3599948239
C       -1.2672042126     -0.0000000181     0.2594997522
H       0.0000000000     -0.8738729764     -1.2430302913
H       -0.0000000606     0.8738729764     -1.2430302913
H       -1.3052750505     -0.8806643351     0.9038259677
H       -2.1646165232     0.0000006841     -0.3599948239
H       -1.3052750505     0.8806643351     0.9038259677
11
# Point 1 Energy = 0.007071029999977441
C       1.2671773123     0.0022609414     0.2594500658
C       0.0000000015     -0.0140020066     -0.5871418970
H       1.3057652374     -0.8961587543     0.9230599990
H       1.3047466719     0.8650238823     0.8846526337
H       2.1645868931     -0.0036759686     -0.3600200183
C       -1.2671773160     0.0022608301     0.2594500489
H       0.0000000685     -0.8342555774     -1.2001849034
H       -0.0000001300     0.9133569614     -1.2859135621
H       -1.3057651334     -0.8961583999     0.9230597405
H       -2.1645868829     -0.0036755699     -0.3600200353
H       -1.3047467831     0.8650243275     0.8846529471
11
# Point 2 Energy = 0.0291560700000133
C       1.2670966271     0.0045199823     0.2593010268
C       0.0000000046     -0.0280040210     -0.5869431076
H       1.3062205256     -0.9115078938     0.9423539075
H       1.3041769621     0.8492365829     0.8655409620
H       2.1644980001     -0.0073533138     -0.3600956077
C       -1.2670966348     0.0045197035     0.2593009942
H       0.0000000970     -0.7944999997     -1.1573849660
H       -0.0000001645     0.9527126207     -1.3288275242
H       -1.3062203455     -0.9115072779     0.9423533639
H       -2.1644979790     -0.0073531016     -0.3600956417
H       -1.3041771533     0.8492373842     0.8655416116
11
# Point 3 Energy = 0.06900557000000163
C       1.2669622240     0.0067751244     0.2590526305
C       0.0000000093     -0.0420057541     -0.5866116018
H       1.3066443122     -0.9267125342     0.9617069217
H       1.3035630162     0.8333014431     0.8464919854
H       2.1643498512     -0.0110335783     -0.3602216943
C       -1.2669622363     0.0067746779     0.2590525829
H       0.0000001229     -0.7546009752     -1.1146379224
H       -0.0000002009     0.9919448706     -1.3717651966
H       -1.3066440544     -0.9267116581     0.9617060916
H       -2.1643498184     -0.0110335528     -0.3602217462
H       -1.3035632863     0.8333026028     0.8464929681

    This sampling was finished on:   2020-07-02 17:54:42
=------------------------------------------------------------------------------=
Sampling finished.
=------------------------------------------------------------------------------=