11
# Point -5 Energy = 0.05282364000001394
C       1.3690941482     0.0000004409     0.0916788900
C       0.0672733169     0.0000001036     -0.5930415161
H       1.1442275964     -0.8192281304     0.7809125463
H       1.1442285874     0.8192283175     0.7809136625
H       2.4214237969     -0.0000000589     -0.1762062883
C       -1.1510578020     -0.0000002433     0.4085464592
H       -0.1806058407     -0.8627139234     -1.2159677314
H       -0.1806072974     0.8627136310     -1.2159679379
H       -1.4195759006     -0.8890483385     0.9787284074
H       -1.7948263742     0.0000004775     -0.4772798515
H       -1.4195742916     0.8890483900     0.9787283787
11
# Point -4 Energy = 0.03398582000001227
C       1.3509978833     0.0000003668     0.1252192722
C       0.0541027094     0.0000000777     -0.5910341122
H       1.1779211233     -0.8364685417     0.8080027874
H       1.1779219516     0.8364687138     0.8080036586
H       2.3828497126     -0.0000000682     -0.2160006770
C       -1.1740783418     -0.0000001941     0.3814220810
H       -0.1463890690     -0.8666819524     -1.2254014780
H       -0.1463902579     0.8666817386     -1.2254016808
H       -1.4017298311     -0.8902249268     0.9681092523
H       -1.8734774106     0.0000005362     -0.4599833202
H       -1.4017285304     0.8902249164     0.9681092355
11
# Point -3 Energy = 0.0192255900000049
C       1.3316449267     0.0000002843     0.1590369877
C       0.0407543751     0.0000000542     -0.5894013568
H       1.2112964490     -0.8512553482     0.8341630850
H       1.2112970925     0.8512554890     0.8341637189
H       2.3375316386     -0.0000000638     -0.2548856419
C       -1.1974158761     -0.0000001457     0.3528568906
H       -0.1109399310     -0.8698061696     -1.2329715785
H       -0.1109408434     0.8698060254     -1.2329717598
H       -1.3813970070     -0.8902715348     0.9553570419
H       -1.9504348605     0.0000005874     -0.4396594000
H       -1.3813960244     0.8902714879     0.9553570317
11
# Point -2 Energy = 0.008592419999999379
C       1.3111132876     0.0000001948     0.1928817432
C       0.0272506097     0.0000000335     -0.5881965137
H       1.2439732258     -0.8635261396     0.8590769196
H       1.2439736661     0.8635262379     0.8590773281
H       2.2856946547     -0.0000000488     -0.2922199210
C       -1.2208856448     -0.0000000996     0.3229096150
H       -0.0745206996     -0.8720586315     -1.2385140945
H       -0.0745213297     0.8720585468     -1.2385142353
H       -1.3584800263     -0.8888979461     0.9403874785
H       -2.0251184356     0.0000006294     -0.4162307720
H       -1.3584793683     0.8888978890     0.9403874710
11
# Point -1 Energy = 0.0021571499999879507
C       1.2895574372     0.0000000997     0.2264704248
C       0.0136413090     0.0000000154     -0.5874575684
H       1.2754716877     -0.8732939246     0.8824028875
H       1.2754719116     0.8732939744     0.8824030846
H       2.2278214224     -0.0000000265     -0.3274133909
C       -1.2442437068     -0.0000000568     0.2917192995
H       -0.0374314976     -0.8734184221     -1.2418950997
H       -0.0374318428     0.8734183858     -1.2418951804
H       -1.3330308806     -0.8857942322     0.9231844572
H       -2.0967953498     0.0000006617     -0.3896583471
H       -1.3330305507     0.8857941912     0.9231844518
11
# Point 0 Energy = 0
C       1.2672042126     0.0000000000     0.2594997522
C       0.0000000000     0.0000000000     -0.5872081259
H       1.3052750505     -0.8806643351     0.9038259677
H       1.3052750505     0.8806643351     0.9038259677
H       2.1646165232     0.0000000000     -0.3599948239
C       -1.2672042126     -0.0000000181     0.2594997522
H       0.0000000000     -0.8738729764     -1.2430302913
H       -0.0000000606     0.8738729764     -1.2430302913
H       -1.3052750505     -0.8806643351     0.9038259677
H       -2.1646165232     0.0000006841     -0.3599948239
H       -1.3052750505     0.8806643351     0.9038259677
11
# Point 1 Energy = 0.0021571499999879507
C       1.2442436446     -0.0000001040     0.2917193270
C       -0.0136413060     -0.0000000130     -0.5874576058
H       1.3330308802     -0.8857942311     0.9231845654
H       1.3330306513     0.8857941843     0.9231843787
H       2.0967952814     0.0000000282     -0.3896583698
C       -1.2895573722     0.0000000159     0.2264704544
H       0.0374315002     -0.8734184022     -1.2418952178
H       0.0374317213     0.8734184264     -1.2418951156
H       -1.2754716889     -0.8732939235     0.8824030036
H       -2.2278213545     0.0000006978     -0.3274134184
H       -1.2754720181     0.8732939874     0.8824030173
11
# Point 2 Energy = 0.008592410000005657
C       1.2208855234     -0.0000002109     0.3229096672
C       -0.0272505979     -0.0000000232     -0.5881965889
H       1.3584800169     -0.8888979448     0.9403876862
H       1.3584795628     0.8888978573     0.9403873208
H       2.0251183018     0.0000000549     -0.4162308118
C       -1.3111131554     0.0000000454     0.1928818036
H       0.0745207099     -0.8720585919     -1.2385143314
H       0.0745212072     0.8720586282     -1.2385141066
H       -1.2439732236     -0.8635261373     0.8590771589
H       -2.2856945229     0.0000007027     -0.2922199789
H       -1.2439738828     0.8635262857     0.8590771997
11
# Point 3 Energy = 0.019225580000011178
C       1.1974156982     -0.0000003197     0.3528569645
C       -0.0407543493     -0.0000000302     -0.5894014700
H       1.3813969741     -0.8902715360     0.9553573418
H       1.3813963050     0.8902714156     0.9553568018
H       1.9504346669     0.0000000783     -0.4396594511
C       -1.3316447261     0.0000000704     0.1590370790
H       0.1109399537     -0.8698061105     -1.2329719356
H       0.1109407192     0.8698061477     -1.2329715684
H       -1.2112964305     -0.8512553436     0.8341634504
H       -2.3375314502     0.0000006989     -0.2548857301
H       -1.2112974214     0.8512555950     0.8341635364
11
# Point 4 Energy = 0.03398579999998219
C       1.1740781099     -0.0000004290     0.3814221734
C       -0.0541026653     -0.0000000339     -0.5910342638
H       1.4017297567     -0.8902249350     0.9681096390
H       1.4017288892     0.8902247899     0.9681089249
H       1.8734771647     0.0000000973     -0.4599833774
C       -1.3509976143     0.0000000912     0.1252193935
H       0.1463891079     -0.8666818747     -1.2254019564
H       0.1463901313     0.8666819020     -1.2254014288
H       -1.1779210690     -0.8364685314     0.8080032765
H       -2.3828494772     0.0000006866     -0.2160007920
H       -1.1779223945     0.8364689029     0.8080034298
11
# Point 5 Energy = 0.05282361000000435
C       1.1510575177     -0.0000005374     0.4085465675
C       -0.0672732508     -0.0000000341     -0.5930417062
H       1.4195757657     -0.8890483600     0.9787288782
H       1.4195747228     0.8890481971     0.9787279872
H       1.7948260842     0.0000001118     -0.4772799114
C       -1.3690938117     0.0000001080     0.0916790396
H       0.1806058992     -0.8627138281     -1.2159683316
H       0.1806071681     0.8627138355     -1.2159676279
H       -1.1442274832     -0.8192281080     0.7809131511
H       -2.4214235248     0.0000006656     -0.1762064241
H       -1.1442291476     0.8192286156     0.7809133966

    This sampling was finished on:   2020-07-02 17:54:42
=------------------------------------------------------------------------------=
Sampling finished.
=------------------------------------------------------------------------------=