11
# Point -15 Energy = 0.008487719999976662
C       1.2630974820     -0.1867148567     0.1353195827
C       -0.0000015190     0.5658183269     -0.2659251814
H       1.3292346479     -0.0707463795     1.2218488892
H       2.2009047704     0.1643195524     -0.2928426361
H       1.1751908938     -1.2534820913     -0.0730671790
C       -1.2630971109     -0.1867225053     0.1353172299
H       -0.0000005461     0.4965122025     -1.3557050192
H       -0.0000052029     1.6309624566     -0.0198222148
H       -1.3292120816     -0.0708058766     1.2218529207
H       -1.1752019397     -1.2534807128     -0.0731217954
H       -2.2009094546     0.1643405498     -0.2928095775
11
# Point -14 Energy = 0.006694980000006012
C       1.2636203829     -0.1763655705     0.1503263998
C       -0.0000013256     0.5439852936     -0.3047310589
H       1.2510498175     -0.1230330170     1.2434654562
H       2.2095926958     0.2425290272     -0.1904130357
H       1.2429933507     -1.2313677219     -0.1247892072
C       -1.2636198453     -0.1763730412     0.1503244659
H       -0.0000003322     0.4106268131     -1.3885796580
H       -0.0000048741     1.6219056695     -0.1228057211
H       -1.2510299453     -0.1230895454     1.2434652281
H       -1.2430064308     -1.2313634512     -0.1248380619
H       -2.2095935542     0.2425462099     -0.1903797883
11
# Point -13 Energy = 0.006163019999988251
C       1.2641089099     -0.1654227855     0.1646508589
C       -0.0000011395     0.5190563768     -0.3415471109
H       1.1793802732     -0.1784185416     1.2556111128
H       2.2052679942     0.3216934773     -0.0879082983
H       1.3195449811     -1.2014452829     -0.1710967114
C       -1.2641082423     -0.1654300212     0.1646492997
H       -0.0000001228     0.3223111242     -1.4157409569
H       -0.0000045383     1.6058595482     -0.2241651786
H       -1.1793634544     -0.1784717269     1.2556073180
H       -1.3195592626     -1.2014384900     -0.1711397560
H       -2.2052654591     0.3217069875     -0.0878755584
11
# Point -12 Energy = 0.006768580000013458
C       1.2645626987     -0.1539636917     0.1781892375
C       -0.0000009636     0.4911911206     -0.3762259376
H       1.1160519490     -0.2368558486     1.2590233490
H       2.1878442883     0.4006983967     0.0133892073
H       1.4029150247     -1.1629346151     -0.2116530875
C       -1.2645619409     -0.1539706367     0.1781880103
H       0.0000000756     0.2319571201     -1.4371159861
H       -0.0000041963     1.5830014487     -0.3234968893
H       -1.1160383748     -0.2369053405     1.2590166925
H       -1.4029297306     -1.1629257005     -0.2116904032
H       -2.1878388907     0.4007084129     0.0134208260
11
# Point -11 Energy = 0.008258209999993937
C       1.2649814127     -0.1420677551     0.1908518673
C       -0.0000008000     0.4605602453     -0.4086325124
H       1.0626793074     -0.2980606082     1.2545510354
H       2.1575463375     0.4782788660     0.1123336286
H       1.4910029125     -1.1151587817     -0.2463521235
C       -1.2649806054     -0.1420743552     0.1908509311
H       0.0000002565     0.1399531170     -1.4526583193
H       -0.0000038488     1.5535385923     -0.4204213965
H       -1.0626690063     -0.2981060899     1.2545422130
H       -1.4910173485     -1.1151481764     -0.2463839065
H       -2.1575386782     0.4782856120     0.1123636017
11
# Point -10 Energy = 0.010176469999976234
C       1.2653647434     -0.1298136618     0.2025636385
C       -0.0000006502     0.4273451296     -0.4386433355
H       1.0206281426     -0.3615068385     1.2431043987
H       2.1149065200     0.5530671650     0.2079485880
H       1.5815911746     -1.0575967669     -0.2753034603
C       -1.2653639261     -0.1298198645     0.2025629540
H       0.0000004143     0.0466827710     -1.4623443873
H       -0.0000034968     1.5177047836     -0.5145839359
H       -1.0206209916     -0.3615480382     1.2430940788
H       -1.5816047511     -1.0575849299     -0.2753300043
H       -2.1148972397     0.5530709166     0.2079764842
11
# Point -9 Energy = 0.011967499999997244
C       1.2657124103     -0.1172764479     0.2132638246
C       -0.0000005155     0.3917375070     -0.4661457141
H       0.9909845623     -0.4264358757     1.2256051183
H       2.0607539418     0.6236463449     0.2994505566
H       1.6724011593     -0.9899291546     -0.2988079490
C       -1.2657116194     -0.1172822024     0.2132633544
H       0.0000005441     -0.0474751320     -1.4661701111
H       -0.0000031413     1.4757573350     -0.6056543974
H       -0.9909803035     -0.4264725787     1.2255939276
H       -1.6724134080     -0.9899165653     -0.2988296266
H       -2.0607436908     0.6236474358     0.2994760357
11
# Point -8 Energy = 0.013079799999999864
C       1.2660241613     -0.1045249811     0.2229053019
C       -0.0000003966     0.3539392758     -0.4910372309
H       0.9745308428     -0.4918779624     1.2029390907
H       1.9961963867     0.6886069854     0.3862618898
H       1.7611501810     -0.9120744869     -0.3173246055
C       -1.2660234280     -0.1045302387     0.2229050103
H       0.0000006417     -0.1421462942     -1.4641479694
H       -0.0000027835     1.4279742174     -0.6933269212
H       -0.9745291048     -0.4919100223     1.2029276040
H       -1.7611607650     -0.9120616355     -0.3173418497
H       -1.9961857962     0.6886058085     0.3862846990
11
# Point -7 Energy = 0.013182789999987676
C       1.2662997724     -0.0916199332     0.2314532656
C       -0.0000002936     0.3141623182     -0.5132254313
H       0.9717286846     -0.5566850692     1.1759141265
H       1.9225954997     0.7466043256     0.4680133228
H       1.8456086764     -0.8242145843     -0.3314312059
C       -1.2662991218     -0.0916246478     0.2314531185
H       0.0000007037     -0.2369601282     -1.4563046004
H       -0.0000024251     1.3746514301     -0.7773192333
H       -0.9717290068     -0.5567124183     1.1759028603
H       -1.8456173953     -0.8242019589     -0.3314444927
H       -1.9225851549     0.7466013319     0.4680332890
11
# Point -6 Energy = 0.012122509999997533
C       1.2665390478     -0.0786123448     0.2388835678
C       -0.0000002067     0.2726282341     -0.5326277317
H       0.9827102140     -0.6195730889     1.1452244656
H       1.8415357530     0.7964130640     0.5445362329
H       1.9236559575     -0.7268077258     -0.3417807780
C       -1.2665384977     -0.0786164732     0.2388835325
H       0.0000007276     -0.3315487762     -1.4426789831
H       -0.0000020678     1.3161005626     -0.8573718055
H       -0.9827120730     -0.6195957458     1.1452138758
H       -1.9236627456     -0.7267957979     -0.3417906107
H       -1.8415261697     0.7964087579     0.5445532534
11
# Point -5 Energy = 0.010137909999997419
C       1.2667418199     -0.0655428435     0.2451808136
C       -0.0000001356     0.2295679091     -0.5491715220
H       1.0072768913     -0.6791711861     1.1114235676
H       1.7547879007     0.8369773361     0.6158454398
H       1.9933331821     -0.6205892133     -0.3490563339
C       -1.2667413802     -0.0655463460     0.2451808584
H       0.0000007118     -0.4255460935     -1.4233211977
H       -0.0000017141     1.2526465191     -0.9332468998
H       -1.0072797284     -0.6791892606     1.1114140506
H       -1.9933381024     -0.6205784228     -0.3490632308
H       -1.7547795056     0.8369722675     0.6158594730
11
# Point -4 Energy = 0.0075357999999852154
C       1.2669079489     -0.0524415391     0.2503363540
C       -0.0000000799     0.1852208616     -0.5627944221
H       1.0449062971     -0.7340758561     1.0749061658
H       1.6642677596     0.8674536814     0.6821137141
H       2.0528922374     -0.5065594444     -0.3539261622
C       -1.2669076216     -0.0524443803     0.2503364485
H       0.0000006554     -0.5185867358     -1.3982917298
H       -0.0000013665     1.1846253791     -1.0047275338
H       -1.0449095463     -0.7340895506     1.0748980618
H       -2.0528954694     -0.5065501846     -0.3539306465
H       -1.6642608753     0.8674484349     0.6821247692
11
# Point -3 Energy = 0.0047572699999847146
C       1.2670373229     -0.0393285815     0.2543463158
C       -0.0000000391     0.1398343362     -0.5734446355
H       1.0947665819     -0.7829071363     1.0359001037
H       1.5719912724     0.8872451873     0.7436394802
H       2.1008393298     -0.3859601757     -0.3570018701
C       -1.2670371023     -0.0393307307     0.2543464300
H       0.0000005586     -0.6103054587     -1.3676612614
H       -0.0000010279     1.1123823797     -1.0716163907
H       -1.0947696960     -0.7829167440     1.0358937020
H       -2.1008411545     -0.3859527791     -0.3570044636
H       -1.5719861064     0.8872403688     0.7436476084
11
# Point -2 Energy = 0.0022979900000024145
C       1.2671298577     -0.0262153292     0.2572097933
C       -0.0000000125     0.0936621398     -0.5810813422
H       1.1557381833     -0.8243644124     0.9944680127
H       1.4800269025     0.8960254176     0.8008094486
H       2.1359722117     -0.2602401548     -0.3588011541
C       -1.2671297311     -0.0262167611     0.2572098981
H       0.0000004221     -0.7003366988     -1.3315108738
H       -0.0000007013     1.0362700174     -1.1337346839
H       -1.1557406589     -0.8243703113     0.9944635581
H       -2.1359729922     -0.2602348812     -0.3588023736
H       -1.4800235419     0.8960216401     0.8008147356
11
# Point -1 Energy = 0.0006331799999799159
C       1.2671854967     -0.0131060482     0.2589273175
C       0.0000000003     0.0469632391     -0.5856750728
H       1.2264422468     -0.8572793570     0.9505184582
H       1.3904464801     0.8937511931     0.8540580713
H       2.1574101267     -0.1310117265     -0.3597169992
C       -1.2671854452     -0.0131067431     0.2589273843
H       0.0000002475     -0.7883144822     -1.2899325858
H       -0.0000003902     0.9566462851     -1.1909209881
H       -1.2264436461     -0.8572820015     0.9505161571
H       -2.1574102866     -0.1310087532     -0.3597173555
H       -1.3904448904     0.8937490604     0.8540606319
11
# Point 0 Energy = 0
C       1.2672042126     0.0000000000     0.2594997522
C       0.0000000000     0.0000000000     -0.5872081259
H       1.3052750505     -0.8806643351     0.9038259677
H       1.3052750505     0.8806643351     0.9038259677
H       2.1646165232     0.0000000000     -0.3599948239
C       -1.2672042126     -0.0000000181     0.2594997522
H       0.0000000000     -0.8738729764     -1.2430302913
H       -0.0000000606     0.8738729764     -1.2430302913
H       -1.3052750505     -0.8806643351     0.9038259677
H       -2.1646165232     0.0000006841     -0.3599948239
H       -1.3052750505     0.8806643351     0.9038259677
11
# Point 1 Energy = 0.0006331700000004048
C       1.2671859991     0.0131059836     0.2589273886
C       -0.0000000132     -0.0469630926     -0.5856744299
H       1.3904477079     -0.8937512710     0.8540579624
H       1.2264437668     0.8572793587     0.9505185001
H       2.1574100224     0.1310115622     -0.3597178454
C       -1.2671860232     0.0131067965     0.2589272941
H       -0.0000002067     -0.9566461774     -1.1909203102
H       0.0000001727     0.7883145454     -1.2899320618
H       -1.3904459953     -0.8937490142     0.8540604597
H       -2.1574103361     0.1310097622     -0.3597179931
H       -1.2264451550     0.8572822125     0.9505160545
11
# Point 2 Energy = 0.002297979999980271
C       1.2671308654     0.0262152010     0.2572099335
C       -0.0000000390     -0.0936619398     -0.5810800626
H       1.4800293077     -0.8960254407     0.8008091991
H       1.1557412159     0.8243645917     0.9944681106
H       2.1359720333     0.2602398022     -0.3588028229
C       -1.2671308843     0.0262167715     0.2572097178
H       -0.0000004811     -1.0362698616     -1.1337333800
H       0.0000004173     0.7003367583     -1.3315097806
H       -1.4800257692     -0.8960216232     0.8008142878
H       -2.1359731225     0.2602357137     -0.3588036222
H       -1.1557436040     0.8243706929     0.9944634382
11
# Point 3 Energy = 0.004757230000009827
C       1.2670388414     0.0393283489     0.2543465222
C       -0.0000000773     -0.1398340468     -0.5734427318
H       1.5719946958     -0.8872451278     0.7436390180
H       1.0947711715     0.7829076043     1.0359002989
H       2.1008391365     0.3859595214     -0.3570043142
C       -1.2670388255     0.0393306709     0.2543461586
H       -0.0000007827     -1.1123821540     -1.0716144476
H       0.0000006332     0.6103055219     -1.3676596247
H       -1.5719893059     -0.8872403735     0.7436467911
H       -2.1008414271     0.3859533291     -0.3570062738
H       -1.0947741205     0.7829173717     1.0358936225
11
# Point 4 Energy = 0.007535710000013296
C       1.2669099863     0.0524411640     0.2503366219
C       -0.0000001281     -0.1852204469     -0.5627919129
H       1.6642720310     -0.8674535402     0.6821129742
H       1.0449124480     0.7340767297     1.0749064814
H       2.0528921145     0.5065583929     -0.3539293160
C       -1.2669099069     0.0524442246     0.2503360843
H       -0.0000011081     -1.1846250580     -1.0047249409
H       0.0000008175     0.5185868060     -1.3982895784
H       -1.6642648839     -0.8674484755     0.6821234964
H       -2.0528959735     0.5065503631     -0.3539329500
H       -1.0449154575     0.7340905063     1.0748980589
11
# Point 5 Energy = 0.010137770000014257
C       1.2667443864     0.0655422909     0.2451811360
C       -0.0000001915     -0.2295673328     -0.5491684316
H       1.7547928475     -0.8369771421     0.6158443704
H       1.0072845666     0.6791725801     1.1114240086
H       1.9933332371     0.6205876922     -0.3490601184
C       -1.2667442179     0.0655460712     0.2451803990
H       -0.0000014539     -1.2526460725     -0.9332436479
H       0.0000009677     0.4255461696     -1.4233185629
H       -1.7547841546     -0.8369723803     0.6158576737
H       -1.9933389518     0.6205781632     -0.3490659464
H       -1.0072870962     0.6791906264     1.1114141383
11
# Point 6 Energy = 0.012122320000003128
C       1.2665421556     0.0786115837     0.2388839353
C       -0.0000002679     -0.2726274593     -0.5326240899
H       1.8415412088     -0.7964128727     0.5445348000
H       0.9827193358     0.6195751079     1.1452250196
H       1.9236563149     0.7268056901     -0.3417851073
C       -1.2665418760     0.0786160590     0.2388829745
H       -0.0000018170     -1.3160999551     -0.8573678873
H       0.0000010814     0.3315488533     -1.4426758976
H       -1.8415312919     -0.7964089991     0.5445508773
H       -1.9236640744     0.7267950598     -0.3417936520
H       -0.9827208298     0.6195975983     1.1452140465
11
# Point 7 Energy = 0.01318254999998203
C       1.2663034350     0.0916189368     0.2314536655
C       -0.0000003578     -0.3141613071     -0.5132212732
H       1.9226013126     -0.7466042149     0.4680115143
H       0.9717391366     0.5566877997     1.1759147669
H       1.8456094720     0.8242120184     -0.3314359936
C       -1.2663030276     0.0916240771     0.2314524573
H       -0.0000021940     -1.3746506198     -0.7773146431
H       0.0000011569     0.2369601975     -1.4563010975
H       -1.9225905925     -0.7466017750     0.4680303111
H       -1.8456193528     0.8242007312     -0.3314477762
H       -0.9717390489     0.5567148222     1.1759030873
11
# Point 8 Energy = 0.013079550000000495
C       1.2660283932     0.1045237270     0.2229057185
C       -0.0000004616     -0.3539379891     -0.4910325967
H       1.9962024275     -0.6886070510     0.3862597170
H       0.9745424741     0.4918814658     1.2029397815
H       1.7611515554     0.9120714051     -0.3173297713
C       -1.2660278474     0.1045294974     0.2229042402
H       -0.0000025821     -1.4279731549     -0.6933216554
H       0.0000011931     0.1421463445     -1.4641440816
H       -1.9961914082     -0.6886065403     0.3862811225
H       -1.7611635098     0.9120599367     -0.3173453028
H       -0.9745402947     0.4919130247     1.2029278469
11
# Point 9 Energy = 0.011967260000020019
C       1.2657172265     0.1172749183     0.2132642380
C       -0.0000005797     -0.3917359037     -0.4661406491
H       2.0607601108     -0.6236466940     0.2994480549
H       0.9909971933     0.4264401823     1.2256058197
H       1.6724032514     0.9899256001     -0.2988134241
C       -1.2657165380     0.1172812796     0.2132624680
H       -0.0000029785     -1.4757559619     -0.6056484555
H       0.0000011892     0.0474751503     -1.4661658693
H       -2.0607493604     -0.6236485516     0.2994718928
H       -1.6724171012     0.9899144428     -0.2988331946
H       -0.9909924739     0.4264762039     1.2255941380
11
# Point 10 Energy = 0.010176270000002319
C       1.2653701586     0.1298118427     0.2025640249
C       -0.0000007124     -0.4273431669     -0.4386378901
H       2.1149127530     -0.5530679095     0.2079458155
H       1.0206415716     0.3615119429     1.2431050740
H       1.5815941149     1.0575928085     -0.2753091919
C       -1.2653693300     0.1298187522     0.2025619424
H       -0.0000033805     -1.5177030319     -0.5145773220
H       0.0000011453     -0.0466827982     -1.4623398197
H       -2.1149028807     -0.5530725150     0.2079718350
H       -1.5816095495     1.0575824575     -0.2753336568
H       -1.0206339506     0.3615522837     1.2430942077
11
# Point 11 Energy = 0.008258069999996565
C       1.2649874408     0.1420656366     0.1908521990
C       -0.0000008599     -0.4605578782     -0.4086267425
H       2.1575526102     -0.4782801156     0.1123306624
H       1.0626933182     0.2980664672     1.2545516569
H       1.4910068170     1.1151545089     -0.2463580775
C       -1.2649864813     0.1420730481     0.1908497841
H       -0.0000037856     -1.5535363835     -0.4204141208
H       0.0000010622     -0.1399532019     -1.4526534511
H       -2.1575442409     -0.4782877890     0.1123585317
H       -1.4910233975     1.1151454501     -0.2463876417
H       -1.0626825437     0.2981109234     1.2545422184
11
# Point 12 Energy = 0.0067684900000131165
C       1.2645693521     0.1539612673     0.1781894829
C       -0.0000010220     -0.4911883018     -0.3762199046
H       2.1878506199     -0.4007002514     0.0133861400
H       1.1160663196     0.2368623799     1.2590239050
H       1.4029199891     1.1629301321     -0.2116592501
C       -1.2645682769     0.1539691318     0.1781867162
H       -0.0000041913     -1.5829986940     -0.3234889694
H       0.0000009415     -0.2319572725     -1.4371108388
H       -2.1878443667     -0.4007112565     0.0134154405
H       -1.4029371568     1.1629228322     -0.2116942503
H       -1.1160522691     0.2369106988     1.2590165477
11
# Point 13 Energy = 0.006162959999997497
C       1.2641161992     0.1654200513     0.1646509825
C       -0.0000011979     -0.5190530572     -0.3415408819
H       2.2052744484     -0.3216960213     -0.0879113649
H       1.1793947845     0.1784256260     1.2556116129
H       1.3195510761     1.2014407017     -0.1711030886
C       -1.2641150287     0.1654283174     0.1646478454
H       -0.0000045950     -1.6058561483     -0.2241566415
H       0.0000007859     -0.3223113502     -1.4157355480
H       -2.2052708843     -0.3217105716     -0.0878811398
H       -1.3195681674     1.2014356016     -0.1711437754
H       -1.1793774815     0.1784775166     1.2556070183
11
# Point 14 Energy = 0.006694909999993115
C       1.2636283161     0.1763625249     0.1503263634
C       -0.0000013864     -0.5439814227     -0.3047247066
H       2.2095993816     -0.2425323232     -0.1904159969
H       1.2510642619     0.1230405022     1.2434659359
H       1.2430006176     1.2313631549     -0.1247958227
C       -1.2636270748     0.1763711388     0.1503228373
H       -0.0000049940     -1.6219015155     -0.1227966047
H       0.0000005990     -0.4106271141     -1.3885740013
H       -2.2095990105     -0.2425505903     -0.1903854400
H       -1.2430168841     1.2313606664     -0.1248423429
H       -1.2510438870     0.1230956447     1.2434647973
11
# Point 15 Energy = 0.008487590000001433
C       1.2631060641     0.1867115000     0.1353193455
C       -0.0000015859     -0.5658138532     -0.2659187841
H       2.2009118401     -0.1643236379     -0.2928453921
H       1.3292488379     0.0707540854     1.2218494132
H       1.1751993420     1.2534776431     -0.0730740711
C       -1.2631047792     0.1867204059     0.1353154122
H       -0.0000053855     -1.6309574311     -0.0198125682
H       0.0000003851     -0.4965125747     -1.3556991243
H       -2.2009150699     -0.1643457605     -0.2928151761
H       -1.1752139747     1.2534781496     -0.0731264524
H       -1.3292257346     0.0708121395     1.2218524163
