                  Welcome to Q-Chem
     A Quantum Leap Into The Future Of Chemistry


 Q-Chem 5.2 (devel), Q-Chem, Inc., Pleasanton, CA (2019)

 Yihan Shao,  Zhengting Gan,  E. Epifanovsky,  A. T. B. Gilbert,  M. Wormit,  
 J. Kussmann,  A. W. Lange,  A. Behn,  Jia Deng,  Xintian Feng,  D. Ghosh,  
 M. Goldey,  P. R. Horn,  L. D. Jacobson,  I. Kaliman,  T. Kus,  A. Landau,  
 Jie Liu,  E. I. Proynov,  R. M. Richard,  R. P. Steele,  E. J. Sundstrom,  
 H. L. Woodcock III,  P. M. Zimmerman,  D. Zuev,  B. Alam,  B. Albrecht,  
 E. Alguire,  S. A. Baeppler,  D. Barton,  Z. Benda,  Y. A. Bernard,  
 E. J. Berquist,  K. B. Bravaya,  H. Burton,  K. Carter-Fenk,  D. Casanova,  
 Chun-Min Chang,  Yunqing Chen,  A. Chien,  K. D. Closser,  M. P. Coons,  
 S. Coriani,  S. Dasgupta,  A. L. Dempwolff,  M. Diedenhofen,  Hainam Do,  
 R. G. Edgar,  Po-Tung Fang,  S. Faraji,  S. Fatehi,  Qingguo Feng,  
 J. Fosso-Tande,  J. Gayvert,  Qinghui Ge,  A. Ghysels,  G. Gidofalvi,  
 J. Gomes,  J. Gonthier,  A. Gunina,  D. Hait,  M. W. D. Hanson-Heine,  
 P. H. P. Harbach,  A. W. Hauser,  M. F. Herbst,  J. E. Herr,  
 E. G. Hohenstein,  Z. C. Holden,  Kerwin Hui,  B. C. Huynh,  T.-C. Jagau,  
 Hyunjun Ji,  B. Kaduk,  K. Khistyaev,  Jaehoon Kim,  P. Klunzinger,  K. Koh,  
 D. Kosenkov,  L. Koulias,  T. Kowalczyk,  C. M. Krauter,  A. Kunitsa,  
 Ka Un Lao,  A. Laurent,  K. V. Lawler,  Joonho Lee,  D. Lefrancois,  
 S. Lehtola,  D. S. Levine,  Yi-Pei Li,  You-Sheng Lin,  Fenglai Liu,  
 Kuan-Yu Liu,  E. Livshits,  M. Loipersberger,  A. Luenser,  P. Manohar,  
 E. Mansoor,  S. F. Manzer,  Shan-Ping Mao,  Yuezhi Mao,  N. Mardirossian,  
 A. V. Marenich,  T. Markovich,  L. A. Martinez-Martinez,  S. A. Maurer,  
 N. J. Mayhall,  S. C. McKenzie,  J.-M. Mewes,  P. Morgante,  A. F. Morrison,  
 J. W. Mullinax,  K. Nanda,  T. S. Nguyen-Beck,  R. Olivares-Amaya,  
 J. A. Parkhill,  S. K. Paul,  Zheng Pei,  T. M. Perrine,  F. Plasser,  
 P. Pokhilko,  S. Prager,  A. Prociuk,  E. Ramos,  B. Rana,  D. R. Rehn,  
 F. Rob,  M. Scheurer,  M. Schneider,  N. Sergueev,  S. M. Sharada,  
 S. Sharma,  D. W. Small,  T. Stauch,  C. J. Stein,  T. Stein,  Yu-Chuan Su,  
 S. P. Veccham,  A. J. W. Thom,  A. Tkatchenko,  T. Tsuchimochi,  
 N. M. Tubman,  L. Vogt,  M. L. Vidal,  O. Vydrov,  M. A. Watson,  J. Wenzel,  
 M. de Wergifosse,  T. A. Wesolowski,  A. White,  J. Witte,  A. Yamada,  
 Jun Yang,  K. Yao,  S. Yeganeh,  S. R. Yost,  Zhi-Qiang You,  A. Zech,  
 Igor Ying Zhang,  Xing Zhang,  Yan Zhao,  Ying Zhu,  B. R. Brooks,  
 G. K. L. Chan,  C. J. Cramer,  M. S. Gordon,  W. J. Hehre,  A. Klamt,  
 M. W. Schmidt,  C. D. Sherrill,  D. G. Truhlar,  A. Aspuru-Guzik,  R. Baer,  
 A. T. Bell,  N. A. Besley,  Jeng-Da Chai,  A. E. DePrince, III,  
 R. A. DiStasio Jr.,  A. Dreuw,  B. D. Dunietz,  T. R. Furlani,  
 Chao-Ping Hsu,  Yousung Jung,  Jing Kong,  D. S. Lambrecht,  WanZhen Liang,  
 C. Ochsenfeld,  V. A. Rassolov,  L. V. Slipchenko,  J. E. Subotnik,  
 T. Van Voorhis,  J. M. Herbert,  A. I. Krylov,  P. M. W. Gill,  M. Head-Gordon

 Contributors to earlier versions of Q-Chem not listed above: 
 R. D. Adamson,  B. Austin,  J. Baker,  G. J. O. Beran,  K. Brandhorst,  
 S. T. Brown,  E. F. C. Byrd,  A. K. Chakraborty,  C.-L. Cheng,  
 Siu Hung Chien,  D. M. Chipman,  D. L. Crittenden,  H. Dachsel,  
 R. J. Doerksen,  A. D. Dutoi,  L. Fusti-Molnar,  W. A. Goddard III,  
 A. Golubeva-Zadorozhnaya,  S. R. Gwaltney,  G. Hawkins,  A. Heyden,  
 S. Hirata,  G. Kedziora,  F. J. Keil,  C. Kelley,  Jihan Kim,  R. A. King,  
 R. Z. Khaliullin,  P. P. Korambath,  W. Kurlancheek,  A. M. Lee,  M. S. Lee,  
 S. V. Levchenko,  Ching Yeh Lin,  D. Liotard,  R. C. Lochan,  I. Lotan,  
 P. E. Maslen,  N. Nair,  D. P. O'Neill,  D. Neuhauser,  E. Neuscamman,  
 C. M. Oana,  R. Olson,  B. Peters,  R. Peverati,  P. A. Pieniazek,  
 Y. M. Rhee,  J. Ritchie,  M. A. Rohrdanz,  E. Rosta,  N. J. Russ,  
 H. F. Schaefer III,  N. E. Schultz,  N. Shenvi,  A. C. Simmonett,  A. Sodt,  
 D. Stuck,  K. S. Thanthiriwatte,  V. Vanovschi,  Tao Wang,  A. Warshel,  
 C. F. Williams,  Q. Wu,  X. Xu,  W. Zhang

 Please cite Q-Chem as follows:
 Y. Shao et al., Mol. Phys. 113, 184-215 (2015)
 DOI: 10.1080/00268976.2014.952696

 Q-Chem 5.2.2 for Intel X86 EM64T Linux

 Parts of Q-Chem use Armadillo 9.800.1 (Horizon Scraper).
 http://arma.sourceforge.net/

 Q-Chem begins on Sun Apr 12 05:20:11 2020  

Host: cn0821
0

     Scratch files written to /tmp/ypli/6721342.srvc1/qchem167841//
Warning:  Did not find "$end" marker in "$molecule" section

Checking the input file for inconsistencies... 	...done.

--------------------------------------------------------------
User input:
--------------------------------------------------------------
$rem
   JOBTYPE  sp
   EXCHANGE   omegaB97X-D
   BASIS   6-311+G(2df,2pd)
   max_scf_cycles   250
   geom_opt_max_cycles   1500
   basis2 6-31G*
   scf_algorithm rca_diis
   SYM_IGNORE  TRUE
   print_input   true
   geom_opt_dmax   80
   pop_mulliken false
   XC_GRID 000075000302
$end

$molecule
0 1
C       1.1454080978     -0.5707704214     -0.1157770383
C       0.1184645575     0.5501821247     -0.2234219593
H       0.8026899989     -1.4648683727     -0.6404862911
H       1.3138647123     -0.8460071404     0.9273211160
H       2.1050817253     -0.2792403502     -0.5437489612
C       -1.2313076573     0.1635030364     0.3692975840
H       -0.0101274581     0.8270098382     -1.2725160342
H       0.4971052076     1.4410986585     0.2832010319
H       -2.0167264745     0.2088385652     -0.3879025235
H       -1.5162751615     0.8267388629     1.1867002224
H       -1.2081776086     -0.8564841352     0.7583778723
--------------------------------------------------------------
 ----------------------------------------------------------------
             Standard Nuclear Orientation (Angstroms)
    I     Atom           X                Y                Z
 ----------------------------------------------------------------
    1      C       1.1454080978    -0.5707704214    -0.1157770383
    2      C       0.1184645575     0.5501821247    -0.2234219593
    3      H       0.8026899989    -1.4648683727    -0.6404862911
    4      H       1.3138647123    -0.8460071404     0.9273211160
    5      H       2.1050817253    -0.2792403502    -0.5437489612
    6      C      -1.2313076573     0.1635030364     0.3692975840
    7      H      -0.0101274581     0.8270098382    -1.2725160342
    8      H       0.4971052076     1.4410986585     0.2832010319
    9      H      -2.0167264745     0.2088385652    -0.3879025235
   10      H      -1.5162751615     0.8267388629     1.1867002224
   11      H      -1.2081776086    -0.8564841352     0.7583778723
 ----------------------------------------------------------------
 Nuclear Repulsion Energy =          82.75227269 hartrees
 There are       13 alpha and       13 beta electrons
 Requested basis set is 6-311+G(2df,2pd)
 There are 72 shells and 214 basis functions

 Total QAlloc Memory Limit   2000 MB
 Mega-Array Size       188 MB
 MEM_STATIC part       192 MB

                       Distance Matrix (Angstroms)
             C (  1)   C (  2)   H (  3)   H (  4)   H (  5)   C (  6)
   C (  2)  1.524052
   H (  3)  1.091873  2.168533
   H (  4)  1.091873  2.168533  1.761337
   H (  5)  1.090469  2.176511  1.763887  1.763887
   C (  6)  2.534410  1.524048  2.794352  2.794352  3.487287
   H (  7)  2.151069  1.092597  2.512536  3.064510  2.495797  2.151064
   H (  8)  2.151069  1.092597  3.064511  2.512537  2.495797  2.151064
   H (  9)  3.268170  2.168550  3.288496  3.733008  4.153530  1.091920
   H ( 10)  3.276284  2.176534  3.737335  3.297734  4.163156  1.090521
   H ( 11)  2.526884  2.168553  2.523993  2.527716  3.606443  1.091921
             H (  7)   H (  8)   H (  9)   H ( 10)
   H (  8)  1.747754
   H (  9)  2.278402  2.878922
   H ( 10)  2.883787  2.290731  1.763980
   H ( 11)  2.897241  2.900460  1.761426  1.763980
 
 A cutoff of  1.0D-09 yielded   2529 shell pairs
 There are     22516 function pairs (     27697 Cartesian)
 Smallest overlap matrix eigenvalue = 7.99E-05

 Scale SEOQF with 1.000000e-01/1.000000e-01/1.000000e-01

 Standard Electronic Orientation quadrupole field applied
 Nucleus-field energy     =     0.0000000012 hartrees
 Requested basis set is 6-31G(d)
 There are 28 shells and 58 basis functions
 A cutoff of  1.0D-09 yielded    400 shell pairs
 There are      1771 function pairs (      1966 Cartesian)
 Smallest overlap matrix eigenvalue = 6.37E-03
 Guess from superposition of atomic densities
 Warning:  Energy on first SCF cycle will be non-variational
 SAD guess density has 26.000000 electrons
 Long-range K will be added via erf
 Coulomb attenuation parameter = 0.2 bohr**(-1)
 A restricted hybrid HF-DFT SCF calculation will be
 performed using Relaxed Constraint Minimization + Pulay DIIS
 Exchange:     0.2220 Hartree-Fock + 1.0000 wB97X-D + LR-HF
 Correlation:  1.0000 wB97X-D
 Using Euler-Maclaurin-Lebedev (75,302) quadrature formula
 Dispersion:   Grimme D
 SCF converges when DIIS error is below 1.0E-04
 using 3 threads for integral computing
 -------------------------------------------------------
 OpenMP Integral computing Module                
 Release: version 1.0, May 2013, Q-Chem Inc. Pittsburgh 
 -------------------------------------------------------
 using 3 threads for integral computing
 -------------------------------------------------------
 OpenMP Integral computing Module                
 Release: version 1.0, May 2013, Q-Chem Inc. Pittsburgh 
 -------------------------------------------------------
 ---------------------------------------
  Cycle       Energy         DIIS Error
 ---------------------------------------
    1    -119.6225545354      1.00E-01
    2    -119.0614282814      9.03E-03
    3    -119.0825956673      2.45E-03
    4    -119.0965448793      1.68E-03
    5    -119.0972408046      2.65E-04 Done RCA. Switching to DIIS
    6    -119.0977513956      1.97E-04
    7    -119.0977681619      4.39E-06 Convergence criterion met
 ---------------------------------------
 SCF time:  CPU 25.80 s  wall 8.78 s
 SCF   energy in the small basis set = -119.09776816
 Total energy in the small basis set = -119.09776816
 ----------------------------------------------------
  Cycle       Energy    
 ----------------------------------------------------
    1     -16.5429532131     -1.65E+01
 Long-range K will be added via erf
 Coulomb attenuation parameter = 0.2 bohr**(-1)
 A restricted hybrid HF-DFT SCF calculation will be
 performed using Relaxed Constraint Minimization + Pulay DIIS
 Exchange:     0.2220 Hartree-Fock + 1.0000 wB97X-D + LR-HF
 Correlation:  1.0000 wB97X-D
 Using Euler-Maclaurin-Lebedev (75,302) quadrature formula
 Dispersion:   Grimme D
 SCF converges when DIIS error is below 1.0E-05
 Basis2 calculation detected. Using small basis as guess for larger.
 SCFMinFind is unable to tell whether the solution found is close.
 Resetting ReadMinima to 0 and attempting to follow guess.
 SCFMinFind following SCF Guess.
 using 3 threads for integral computing
 -------------------------------------------------------
 OpenMP Integral computing Module                
 Release: version 1.0, May 2013, Q-Chem Inc. Pittsburgh 
 -------------------------------------------------------
 using 3 threads for integral computing
 -------------------------------------------------------
 OpenMP Integral computing Module                
 Release: version 1.0, May 2013, Q-Chem Inc. Pittsburgh 
 -------------------------------------------------------
 ---------------------------------------
  Cycle       Energy         DIIS Error
 ---------------------------------------
    1    -119.1170076323      4.21E-03
    2    -119.1390354764      6.01E-04 Done RCA. Switching to DIIS
    3    -119.1398708103      4.23E-04
    4    -119.1408489266      4.54E-05
    5    -119.1408636441      1.02E-05
    6    -119.1408643456      3.95E-06 Convergence criterion met
 ---------------------------------------
 SCF time:  CPU 77.20 s  wall 26.00 s
 SCF   energy in the final basis set = -119.14086435
 Total energy in the final basis set = -119.14086435
 
 --------------------------------------------------------------
 
                    Orbital Energies (a.u.)
 --------------------------------------------------------------
 
 Alpha MOs
 -- Occupied --
-10.2726 -10.2653 -10.2635  -0.8811  -0.7767  -0.6776  -0.5447  -0.5256
 -0.4796  -0.4683  -0.4190  -0.4160  -0.4023
 -- Virtual --
  0.0697   0.0869   0.0911   0.1014   0.1220   0.1310   0.1326   0.1380
  0.1452   0.1657   0.1749   0.1902   0.2140   0.2410   0.2510   0.2605
  0.2915   0.3051   0.3140   0.3262   0.3363   0.3496   0.4560   0.4774
  0.4887   0.4965   0.5120   0.5163   0.5284   0.5426   0.5740   0.5862
  0.6215   0.6263   0.6308   0.6382   0.6494   0.6544   0.7034   0.7104
  0.7363   0.7736   0.8081   0.8440   0.9010   0.9234   0.9692   0.9751
  0.9896   1.0414   1.0710   1.1089   1.1345   1.1749   1.2010   1.2063
  1.2213   1.2371   1.2545   1.2761   1.2846   1.2946   1.3290   1.3659
  1.4003   1.4226   1.4413   1.4425   1.4470   1.4639   1.4703   1.5180
  1.5310   1.5475   1.5688   1.6041   1.6305   1.6557   1.6597   1.6766
  1.7440   2.3609   2.3684   2.4661   2.4682   2.5015   2.6388   2.6682
  2.6875   2.6968   2.7983   2.8059   2.8570   2.8752   2.9322   2.9359
  2.9419   2.9687   3.0152   3.0411   3.0565   3.0611   3.0719   3.1117
  3.1295   3.1454   3.1891   3.1943   3.2004   3.2371   3.2662   3.2917
  3.3154   3.3220   3.3288   3.3505   3.3543   3.4124   3.4151   3.4364
  3.4519   3.4855   3.5348   3.5531   3.5587   3.6009   3.6068   3.6169
  3.6434   3.6875   3.6996   3.7084   3.7390   3.7445   3.7642   3.8459
  3.8704   3.9271   3.9484   3.9626   4.0049   4.0188   4.0454   4.0675
  4.1044   4.1095   4.1107   4.1277   4.1600   4.1727   4.1936   4.2026
  4.2549   4.2744   4.3025   4.3140   4.3543   4.4175   4.4204   4.4760
  4.5013   4.5600   4.6151   4.6175   4.6912   4.8088   4.8418   4.8638
  4.9087   4.9314   4.9508   4.9844   5.0006   5.0701   5.0847   5.1468
  5.1484   5.1990   5.2531   5.2740   5.2962   5.2992   5.3496   5.3548
  5.3765   5.3949   5.4319   5.4598   5.5234   5.5536   5.6461   5.7221
  5.9938   6.3331   6.3830   6.4062   6.4310   6.4955  25.1326  25.4197
 25.4875
 --------------------------------------------------------------
 
 -----------------------------------------------------------------
                    Cartesian Multipole Moments
 -----------------------------------------------------------------
    Charge (ESU x 10^10)
                -0.0000
    Dipole Moment (Debye)
         X       0.0119      Y       0.0742      Z      -0.0342
       Tot       0.0826
    Quadrupole Moments (Debye-Ang)
        XX     -22.1967     XY       0.1215     YY     -21.7870
        XZ       0.2436     YZ       0.1677     ZZ     -21.4172
    Octopole Moments (Debye-Ang^2)
       XXX       0.4837    XXY       0.2320    XYY      -0.4762
       YYY      -1.7271    XXZ      -1.3634    XYZ      -0.1649
       YYZ       0.1421    XZZ      -0.3286    YZZ      -0.1689
       ZZZ      -1.4160
    Hexadecapole Moments (Debye-Ang^3)
      XXXX    -185.2915   XXXY      20.0285   XXYY     -45.1581
      XYYY      20.2731   YYYY     -78.1869   XXXZ      15.6477
      XXYZ      -0.0713   XYYZ       4.7015   YYYZ       1.9456
      XXZZ     -39.1184   XYZZ       5.5013   YYZZ     -21.1316
      XZZZ      15.9953   YZZZ       0.0038   ZZZZ     -54.2359
 -----------------------------------------------------------------
Archival summary:
1\1\cn0821\SP\ProcedureUnspecified\BasisUnspecified\38\r0852400\SunApr1205:20:502020SunApr1205:20:502020\0\\#,ProcedureUnspecified,BasisUnspecified,\\0,1\C\H,1,1.0926\H,1,1.0926,2,106.225\C,1,1.52405,2,109.48,3,-118.121,0\H,4,1.09052,1,111.631,2,-1.96562,0\H,4,1.09192,1,110.905,2,118.333,0\H,4,1.09192,1,110.905,2,-122.264,0\C,1,1.52405,2,109.48,3,118.121,0\H,8,1.09047,1,111.632,2,-58.0358,0\H,8,1.09187,1,110.906,2,-178.334,0\H,8,1.09187,1,110.906,2,62.2626,0\\\@

 Total job time:  38.63s(wall), 107.67s(cpu) 
 Sun Apr 12 05:20:50 2020

        *************************************************************
        *                                                           *
        *  Thank you very much for using Q-Chem.  Have a nice day.  *
        *                                                           *
        *************************************************************


