                  Welcome to Q-Chem
     A Quantum Leap Into The Future Of Chemistry


 Q-Chem 5.2 (devel), Q-Chem, Inc., Pleasanton, CA (2019)

 Yihan Shao,  Zhengting Gan,  E. Epifanovsky,  A. T. B. Gilbert,  M. Wormit,  
 J. Kussmann,  A. W. Lange,  A. Behn,  Jia Deng,  Xintian Feng,  D. Ghosh,  
 M. Goldey,  P. R. Horn,  L. D. Jacobson,  I. Kaliman,  T. Kus,  A. Landau,  
 Jie Liu,  E. I. Proynov,  R. M. Richard,  R. P. Steele,  E. J. Sundstrom,  
 H. L. Woodcock III,  P. M. Zimmerman,  D. Zuev,  B. Alam,  B. Albrecht,  
 E. Alguire,  S. A. Baeppler,  D. Barton,  Z. Benda,  Y. A. Bernard,  
 E. J. Berquist,  K. B. Bravaya,  H. Burton,  K. Carter-Fenk,  D. Casanova,  
 Chun-Min Chang,  Yunqing Chen,  A. Chien,  K. D. Closser,  M. P. Coons,  
 S. Coriani,  S. Dasgupta,  A. L. Dempwolff,  M. Diedenhofen,  Hainam Do,  
 R. G. Edgar,  Po-Tung Fang,  S. Faraji,  S. Fatehi,  Qingguo Feng,  
 J. Fosso-Tande,  J. Gayvert,  Qinghui Ge,  A. Ghysels,  G. Gidofalvi,  
 J. Gomes,  J. Gonthier,  A. Gunina,  D. Hait,  M. W. D. Hanson-Heine,  
 P. H. P. Harbach,  A. W. Hauser,  M. F. Herbst,  J. E. Herr,  
 E. G. Hohenstein,  Z. C. Holden,  Kerwin Hui,  B. C. Huynh,  T.-C. Jagau,  
 Hyunjun Ji,  B. Kaduk,  K. Khistyaev,  Jaehoon Kim,  P. Klunzinger,  K. Koh,  
 D. Kosenkov,  L. Koulias,  T. Kowalczyk,  C. M. Krauter,  A. Kunitsa,  
 Ka Un Lao,  A. Laurent,  K. V. Lawler,  Joonho Lee,  D. Lefrancois,  
 S. Lehtola,  D. S. Levine,  Yi-Pei Li,  You-Sheng Lin,  Fenglai Liu,  
 Kuan-Yu Liu,  E. Livshits,  M. Loipersberger,  A. Luenser,  P. Manohar,  
 E. Mansoor,  S. F. Manzer,  Shan-Ping Mao,  Yuezhi Mao,  N. Mardirossian,  
 A. V. Marenich,  T. Markovich,  L. A. Martinez-Martinez,  S. A. Maurer,  
 N. J. Mayhall,  S. C. McKenzie,  J.-M. Mewes,  P. Morgante,  A. F. Morrison,  
 J. W. Mullinax,  K. Nanda,  T. S. Nguyen-Beck,  R. Olivares-Amaya,  
 J. A. Parkhill,  S. K. Paul,  Zheng Pei,  T. M. Perrine,  F. Plasser,  
 P. Pokhilko,  S. Prager,  A. Prociuk,  E. Ramos,  B. Rana,  D. R. Rehn,  
 F. Rob,  M. Scheurer,  M. Schneider,  N. Sergueev,  S. M. Sharada,  
 S. Sharma,  D. W. Small,  T. Stauch,  C. J. Stein,  T. Stein,  Yu-Chuan Su,  
 S. P. Veccham,  A. J. W. Thom,  A. Tkatchenko,  T. Tsuchimochi,  
 N. M. Tubman,  L. Vogt,  M. L. Vidal,  O. Vydrov,  M. A. Watson,  J. Wenzel,  
 M. de Wergifosse,  T. A. Wesolowski,  A. White,  J. Witte,  A. Yamada,  
 Jun Yang,  K. Yao,  S. Yeganeh,  S. R. Yost,  Zhi-Qiang You,  A. Zech,  
 Igor Ying Zhang,  Xing Zhang,  Yan Zhao,  Ying Zhu,  B. R. Brooks,  
 G. K. L. Chan,  C. J. Cramer,  M. S. Gordon,  W. J. Hehre,  A. Klamt,  
 M. W. Schmidt,  C. D. Sherrill,  D. G. Truhlar,  A. Aspuru-Guzik,  R. Baer,  
 A. T. Bell,  N. A. Besley,  Jeng-Da Chai,  A. E. DePrince, III,  
 R. A. DiStasio Jr.,  A. Dreuw,  B. D. Dunietz,  T. R. Furlani,  
 Chao-Ping Hsu,  Yousung Jung,  Jing Kong,  D. S. Lambrecht,  WanZhen Liang,  
 C. Ochsenfeld,  V. A. Rassolov,  L. V. Slipchenko,  J. E. Subotnik,  
 T. Van Voorhis,  J. M. Herbert,  A. I. Krylov,  P. M. W. Gill,  M. Head-Gordon

 Contributors to earlier versions of Q-Chem not listed above: 
 R. D. Adamson,  B. Austin,  J. Baker,  G. J. O. Beran,  K. Brandhorst,  
 S. T. Brown,  E. F. C. Byrd,  A. K. Chakraborty,  C.-L. Cheng,  
 Siu Hung Chien,  D. M. Chipman,  D. L. Crittenden,  H. Dachsel,  
 R. J. Doerksen,  A. D. Dutoi,  L. Fusti-Molnar,  W. A. Goddard III,  
 A. Golubeva-Zadorozhnaya,  S. R. Gwaltney,  G. Hawkins,  A. Heyden,  
 S. Hirata,  G. Kedziora,  F. J. Keil,  C. Kelley,  Jihan Kim,  R. A. King,  
 R. Z. Khaliullin,  P. P. Korambath,  W. Kurlancheek,  A. M. Lee,  M. S. Lee,  
 S. V. Levchenko,  Ching Yeh Lin,  D. Liotard,  R. C. Lochan,  I. Lotan,  
 P. E. Maslen,  N. Nair,  D. P. O'Neill,  D. Neuhauser,  E. Neuscamman,  
 C. M. Oana,  R. Olson,  B. Peters,  R. Peverati,  P. A. Pieniazek,  
 Y. M. Rhee,  J. Ritchie,  M. A. Rohrdanz,  E. Rosta,  N. J. Russ,  
 H. F. Schaefer III,  N. E. Schultz,  N. Shenvi,  A. C. Simmonett,  A. Sodt,  
 D. Stuck,  K. S. Thanthiriwatte,  V. Vanovschi,  Tao Wang,  A. Warshel,  
 C. F. Williams,  Q. Wu,  X. Xu,  W. Zhang

 Please cite Q-Chem as follows:
 Y. Shao et al., Mol. Phys. 113, 184-215 (2015)
 DOI: 10.1080/00268976.2014.952696

 Q-Chem 5.2.2 for Intel X86 EM64T Linux

 Parts of Q-Chem use Armadillo 9.800.1 (Horizon Scraper).
 http://arma.sourceforge.net/

 Q-Chem begins on Sun Apr 12 05:10:05 2020  

Host: cn0821
0

     Scratch files written to /tmp/ypli/6721342.srvc1/qchem166275//
Warning:  Did not find "$end" marker in "$molecule" section

Checking the input file for inconsistencies... 	...done.

--------------------------------------------------------------
User input:
--------------------------------------------------------------
$rem
   JOBTYPE  sp
   EXCHANGE   omegaB97X-D
   BASIS   6-311+G(2df,2pd)
   max_scf_cycles   250
   geom_opt_max_cycles   1500
   basis2 6-31G*
   scf_algorithm rca_diis
   SYM_IGNORE  TRUE
   print_input   true
   geom_opt_dmax   80
   pop_mulliken false
   XC_GRID 000075000302
$end

$molecule
0 1
C       1.2351352395     -0.3482805193     0.1569934644
C       0.0330723030     0.3328554840     -0.4862997123
H       1.0843575441     -1.4279315347     0.2186422826
H       1.3943270409     0.0199566569     1.1724934198
H       2.1492671581     -0.1702694271     -0.4102786740
C       -1.2562945258     0.0966912154     0.2911840997
H       -0.0869064103     -0.0302558848     -1.5097826602
H       0.2206726563     1.4064667375     -0.5632872680
H       -1.4090800243     0.8777044487     1.0387825703
H       -1.2437819283     -0.8632815384     0.8083638123
H       -2.1207691137     0.1063450278     -0.3757663158
--------------------------------------------------------------
 ----------------------------------------------------------------
             Standard Nuclear Orientation (Angstroms)
    I     Atom           X                Y                Z
 ----------------------------------------------------------------
    1      C       1.2351352395    -0.3482805193     0.1569934644
    2      C       0.0330723030     0.3328554840    -0.4862997123
    3      H       1.0843575441    -1.4279315347     0.2186422826
    4      H       1.3943270409     0.0199566569     1.1724934198
    5      H       2.1492671581    -0.1702694271    -0.4102786740
    6      C      -1.2562945258     0.0966912154     0.2911840997
    7      H      -0.0869064103    -0.0302558848    -1.5097826602
    8      H       0.2206726563     1.4064667375    -0.5632872680
    9      H      -1.4090800243     0.8777044487     1.0387825703
   10      H      -1.2437819283    -0.8632815384     0.8083638123
   11      H      -2.1207691137     0.1063450278    -0.3757663158
 ----------------------------------------------------------------
 Nuclear Repulsion Energy =          82.73272719 hartrees
 There are       13 alpha and       13 beta electrons
 Requested basis set is 6-311+G(2df,2pd)
 There are 72 shells and 214 basis functions

 Total QAlloc Memory Limit   2000 MB
 Mega-Array Size       188 MB
 MEM_STATIC part       192 MB

                       Distance Matrix (Angstroms)
             C (  1)   C (  2)   H (  3)   H (  4)   H (  5)   C (  6)
   C (  2)  1.524050
   H (  3)  1.091870  2.168528
   H (  4)  1.091870  2.168528  1.761333
   H (  5)  1.090469  2.176510  1.763884  1.763884
   C (  6)  2.534409  1.524048  2.794349  2.794349  3.487287
   H (  7)  2.151064  1.092594  2.512530  3.064503  2.495793  2.151061
   H (  8)  2.151064  1.092594  3.064503  2.512530  2.495794  2.151061
   H (  9)  3.045072  2.168534  3.493683  2.934740  3.982444  1.091892
   H ( 10)  2.614295  2.176523  2.467151  2.805765  3.671258  1.090495
   H ( 11)  3.428208  2.168538  3.602799  3.841936  4.279126  1.091894
             H (  7)   H (  8)   H (  9)   H ( 10)
   H (  8)  1.747750
   H (  9)  3.011265  2.345701
   H ( 10)  2.721414  3.029490  1.763930
   H ( 11)  2.332649  2.684740  1.761376  1.763929
 
 A cutoff of  1.0D-09 yielded   2531 shell pairs
 There are     22501 function pairs (     27662 Cartesian)
 Smallest overlap matrix eigenvalue = 8.34E-05

 Scale SEOQF with 1.000000e-01/1.000000e-01/1.000000e-01

 Standard Electronic Orientation quadrupole field applied
 Nucleus-field energy     =     0.0000000009 hartrees
 Requested basis set is 6-31G(d)
 There are 28 shells and 58 basis functions
 A cutoff of  1.0D-09 yielded    402 shell pairs
 There are      1773 function pairs (      1968 Cartesian)
 Smallest overlap matrix eigenvalue = 6.59E-03
 Guess from superposition of atomic densities
 Warning:  Energy on first SCF cycle will be non-variational
 SAD guess density has 26.000000 electrons
 Long-range K will be added via erf
 Coulomb attenuation parameter = 0.2 bohr**(-1)
 A restricted hybrid HF-DFT SCF calculation will be
 performed using Relaxed Constraint Minimization + Pulay DIIS
 Exchange:     0.2220 Hartree-Fock + 1.0000 wB97X-D + LR-HF
 Correlation:  1.0000 wB97X-D
 Using Euler-Maclaurin-Lebedev (75,302) quadrature formula
 Dispersion:   Grimme D
 SCF converges when DIIS error is below 1.0E-04
 using 3 threads for integral computing
 -------------------------------------------------------
 OpenMP Integral computing Module                
 Release: version 1.0, May 2013, Q-Chem Inc. Pittsburgh 
 -------------------------------------------------------
 using 3 threads for integral computing
 -------------------------------------------------------
 OpenMP Integral computing Module                
 Release: version 1.0, May 2013, Q-Chem Inc. Pittsburgh 
 -------------------------------------------------------
 ---------------------------------------
  Cycle       Energy         DIIS Error
 ---------------------------------------
    1    -119.6201323310      1.00E-01
    2    -119.0641463970      9.02E-03
    3    -119.0852717372      2.46E-03
    4    -119.0991933763      1.68E-03
    5    -119.0998887695      2.66E-04 Done RCA. Switching to DIIS
    6    -119.1003986113      1.97E-04
    7    -119.1004153900      4.45E-06 Convergence criterion met
 ---------------------------------------
 SCF time:  CPU 26.34 s  wall 9.02 s
 SCF   energy in the small basis set = -119.10041539
 Total energy in the small basis set = -119.10041539
 ----------------------------------------------------
  Cycle       Energy    
 ----------------------------------------------------
    1     -16.5411349705     -1.65E+01
 Long-range K will be added via erf
 Coulomb attenuation parameter = 0.2 bohr**(-1)
 A restricted hybrid HF-DFT SCF calculation will be
 performed using Relaxed Constraint Minimization + Pulay DIIS
 Exchange:     0.2220 Hartree-Fock + 1.0000 wB97X-D + LR-HF
 Correlation:  1.0000 wB97X-D
 Using Euler-Maclaurin-Lebedev (75,302) quadrature formula
 Dispersion:   Grimme D
 SCF converges when DIIS error is below 1.0E-05
 Basis2 calculation detected. Using small basis as guess for larger.
 SCFMinFind is unable to tell whether the solution found is close.
 Resetting ReadMinima to 0 and attempting to follow guess.
 SCFMinFind following SCF Guess.
 using 3 threads for integral computing
 -------------------------------------------------------
 OpenMP Integral computing Module                
 Release: version 1.0, May 2013, Q-Chem Inc. Pittsburgh 
 -------------------------------------------------------
 using 3 threads for integral computing
 -------------------------------------------------------
 OpenMP Integral computing Module                
 Release: version 1.0, May 2013, Q-Chem Inc. Pittsburgh 
 -------------------------------------------------------
 ---------------------------------------
  Cycle       Energy         DIIS Error
 ---------------------------------------
    1    -119.1195753631      4.21E-03
    2    -119.1416079487      5.98E-04 Done RCA. Switching to DIIS
    3    -119.1424408007      4.20E-04
    4    -119.1434065190      4.55E-05
    5    -119.1434212242      1.01E-05
    6    -119.1434219131      3.88E-06 Convergence criterion met
 ---------------------------------------
 SCF time:  CPU 80.54 s  wall 27.20 s
 SCF   energy in the final basis set = -119.14342191
 Total energy in the final basis set = -119.14342191
 
 --------------------------------------------------------------
 
                    Orbital Energies (a.u.)
 --------------------------------------------------------------
 
 Alpha MOs
 -- Occupied --
-10.2733 -10.2651 -10.2643  -0.8810  -0.7770  -0.6776  -0.5452  -0.5245
 -0.4818  -0.4657  -0.4190  -0.4166  -0.4045
 -- Virtual --
  0.0694   0.0865   0.0911   0.0996   0.1239   0.1309   0.1327   0.1394
  0.1453   0.1684   0.1737   0.1907   0.2219   0.2388   0.2520   0.2575
  0.2879   0.2981   0.3106   0.3242   0.3344   0.3470   0.4576   0.4701
  0.4759   0.5033   0.5118   0.5169   0.5340   0.5601   0.5835   0.5922
  0.6112   0.6255   0.6329   0.6409   0.6540   0.6558   0.7070   0.7137
  0.7315   0.7660   0.8089   0.8559   0.8836   0.9059   0.9221   0.9634
  1.0009   1.0228   1.0924   1.1160   1.1449   1.1749   1.1885   1.2203
  1.2361   1.2502   1.2549   1.2723   1.2739   1.3175   1.3360   1.3592
  1.3718   1.3886   1.4299   1.4439   1.4527   1.4652   1.4669   1.5150
  1.5245   1.5515   1.5814   1.5995   1.6342   1.6423   1.6675   1.6940
  1.7419   2.3603   2.4122   2.4724   2.4794   2.5300   2.6104   2.6284
  2.6535   2.6828   2.8026   2.8221   2.8386   2.8965   2.9266   2.9331
  2.9389   2.9558   3.0074   3.0350   3.0489   3.0660   3.0814   3.1056
  3.1312   3.1429   3.1715   3.1872   3.1985   3.2406   3.2763   3.2963
  3.2991   3.3222   3.3446   3.3584   3.3736   3.4073   3.4159   3.4354
  3.4399   3.4759   3.5056   3.5291   3.5689   3.5832   3.6093   3.6200
  3.6391   3.6522   3.6951   3.7022   3.7637   3.7870   3.8363   3.8714
  3.8853   3.9271   3.9529   3.9779   4.0060   4.0164   4.0545   4.0664
  4.0884   4.0915   4.1148   4.1265   4.1511   4.1726   4.2031   4.2126
  4.2292   4.2647   4.3003   4.3157   4.3463   4.4070   4.4183   4.4487
  4.4800   4.5238   4.5926   4.6076   4.6418   4.8166   4.8410   4.9127
  4.9347   4.9396   4.9737   4.9919   5.0070   5.0510   5.0557   5.1145
  5.1441   5.2143   5.2321   5.2795   5.2832   5.3238   5.3491   5.3666
  5.3710   5.3971   5.4163   5.5093   5.5172   5.5366   5.6400   5.7205
  5.9591   6.3623   6.3795   6.4010   6.4229   6.4869  25.1633  25.4181
 25.4638
 --------------------------------------------------------------
 
 -----------------------------------------------------------------
                    Cartesian Multipole Moments
 -----------------------------------------------------------------
    Charge (ESU x 10^10)
                -0.0000
    Dipole Moment (Debye)
         X       0.0013      Y       0.0511      Z      -0.0711
       Tot       0.0875
    Quadrupole Moments (Debye-Ang)
        XX     -22.2005     XY       0.1451     YY     -21.4780
        XZ       0.0966     YZ       0.2132     ZZ     -21.7051
    Octopole Moments (Debye-Ang^2)
       XXX       0.1703    XXY       0.1624    XYY      -0.1813
       YYY      -0.9439    XXZ      -1.5251    XYZ      -0.0163
       YYZ       0.3924    XZZ      -0.1139    YZZ      -0.1574
       ZZZ      -0.7423
    Hexadecapole Moments (Debye-Ang^3)
      XXXX    -197.9055   XXXY      14.0748   XXYY     -43.7516
      XYYY      13.3150   YYYY     -54.4755   XXXZ       4.9153
      XXYZ       1.8929   XYYZ       0.7204   YYYZ       4.6449
      XXZZ     -42.7934   XYZZ       4.6373   YYZZ     -20.1664
      XZZZ       5.5915   YZZZ       6.4658   ZZZZ     -62.5951
 -----------------------------------------------------------------
Archival summary:
1\1\cn0821\SP\ProcedureUnspecified\BasisUnspecified\38\r0852400\SunApr1205:10:452020SunApr1205:10:452020\0\\#,ProcedureUnspecified,BasisUnspecified,\\0,1\C\H,1,1.09259\H,1,1.09259,2,106.225\C,1,1.52405,2,109.48,3,-118.121,0\H,4,1.09049,1,111.632,2,-151.965,0\H,4,1.09189,1,110.905,2,-31.6663,0\H,4,1.09189,1,110.906,2,87.7366,0\C,1,1.52405,2,109.48,3,118.121,0\H,8,1.09047,1,111.632,2,-58.0358,0\H,8,1.09187,1,110.906,2,-178.334,0\H,8,1.09187,1,110.906,2,62.2627,0\\\@

 Total job time:  40.24s(wall), 111.77s(cpu) 
 Sun Apr 12 05:10:45 2020

        *************************************************************
        *                                                           *
        *  Thank you very much for using Q-Chem.  Have a nice day.  *
        *                                                           *
        *************************************************************


