                  Welcome to Q-Chem
     A Quantum Leap Into The Future Of Chemistry


 Q-Chem 5.2 (devel), Q-Chem, Inc., Pleasanton, CA (2019)

 Yihan Shao,  Zhengting Gan,  E. Epifanovsky,  A. T. B. Gilbert,  M. Wormit,  
 J. Kussmann,  A. W. Lange,  A. Behn,  Jia Deng,  Xintian Feng,  D. Ghosh,  
 M. Goldey,  P. R. Horn,  L. D. Jacobson,  I. Kaliman,  T. Kus,  A. Landau,  
 Jie Liu,  E. I. Proynov,  R. M. Richard,  R. P. Steele,  E. J. Sundstrom,  
 H. L. Woodcock III,  P. M. Zimmerman,  D. Zuev,  B. Alam,  B. Albrecht,  
 E. Alguire,  S. A. Baeppler,  D. Barton,  Z. Benda,  Y. A. Bernard,  
 E. J. Berquist,  K. B. Bravaya,  H. Burton,  K. Carter-Fenk,  D. Casanova,  
 Chun-Min Chang,  Yunqing Chen,  A. Chien,  K. D. Closser,  M. P. Coons,  
 S. Coriani,  S. Dasgupta,  A. L. Dempwolff,  M. Diedenhofen,  Hainam Do,  
 R. G. Edgar,  Po-Tung Fang,  S. Faraji,  S. Fatehi,  Qingguo Feng,  
 J. Fosso-Tande,  J. Gayvert,  Qinghui Ge,  A. Ghysels,  G. Gidofalvi,  
 J. Gomes,  J. Gonthier,  A. Gunina,  D. Hait,  M. W. D. Hanson-Heine,  
 P. H. P. Harbach,  A. W. Hauser,  M. F. Herbst,  J. E. Herr,  
 E. G. Hohenstein,  Z. C. Holden,  Kerwin Hui,  B. C. Huynh,  T.-C. Jagau,  
 Hyunjun Ji,  B. Kaduk,  K. Khistyaev,  Jaehoon Kim,  P. Klunzinger,  K. Koh,  
 D. Kosenkov,  L. Koulias,  T. Kowalczyk,  C. M. Krauter,  A. Kunitsa,  
 Ka Un Lao,  A. Laurent,  K. V. Lawler,  Joonho Lee,  D. Lefrancois,  
 S. Lehtola,  D. S. Levine,  Yi-Pei Li,  You-Sheng Lin,  Fenglai Liu,  
 Kuan-Yu Liu,  E. Livshits,  M. Loipersberger,  A. Luenser,  P. Manohar,  
 E. Mansoor,  S. F. Manzer,  Shan-Ping Mao,  Yuezhi Mao,  N. Mardirossian,  
 A. V. Marenich,  T. Markovich,  L. A. Martinez-Martinez,  S. A. Maurer,  
 N. J. Mayhall,  S. C. McKenzie,  J.-M. Mewes,  P. Morgante,  A. F. Morrison,  
 J. W. Mullinax,  K. Nanda,  T. S. Nguyen-Beck,  R. Olivares-Amaya,  
 J. A. Parkhill,  S. K. Paul,  Zheng Pei,  T. M. Perrine,  F. Plasser,  
 P. Pokhilko,  S. Prager,  A. Prociuk,  E. Ramos,  B. Rana,  D. R. Rehn,  
 F. Rob,  M. Scheurer,  M. Schneider,  N. Sergueev,  S. M. Sharada,  
 S. Sharma,  D. W. Small,  T. Stauch,  C. J. Stein,  T. Stein,  Yu-Chuan Su,  
 S. P. Veccham,  A. J. W. Thom,  A. Tkatchenko,  T. Tsuchimochi,  
 N. M. Tubman,  L. Vogt,  M. L. Vidal,  O. Vydrov,  M. A. Watson,  J. Wenzel,  
 M. de Wergifosse,  T. A. Wesolowski,  A. White,  J. Witte,  A. Yamada,  
 Jun Yang,  K. Yao,  S. Yeganeh,  S. R. Yost,  Zhi-Qiang You,  A. Zech,  
 Igor Ying Zhang,  Xing Zhang,  Yan Zhao,  Ying Zhu,  B. R. Brooks,  
 G. K. L. Chan,  C. J. Cramer,  M. S. Gordon,  W. J. Hehre,  A. Klamt,  
 M. W. Schmidt,  C. D. Sherrill,  D. G. Truhlar,  A. Aspuru-Guzik,  R. Baer,  
 A. T. Bell,  N. A. Besley,  Jeng-Da Chai,  A. E. DePrince, III,  
 R. A. DiStasio Jr.,  A. Dreuw,  B. D. Dunietz,  T. R. Furlani,  
 Chao-Ping Hsu,  Yousung Jung,  Jing Kong,  D. S. Lambrecht,  WanZhen Liang,  
 C. Ochsenfeld,  V. A. Rassolov,  L. V. Slipchenko,  J. E. Subotnik,  
 T. Van Voorhis,  J. M. Herbert,  A. I. Krylov,  P. M. W. Gill,  M. Head-Gordon

 Contributors to earlier versions of Q-Chem not listed above: 
 R. D. Adamson,  B. Austin,  J. Baker,  G. J. O. Beran,  K. Brandhorst,  
 S. T. Brown,  E. F. C. Byrd,  A. K. Chakraborty,  C.-L. Cheng,  
 Siu Hung Chien,  D. M. Chipman,  D. L. Crittenden,  H. Dachsel,  
 R. J. Doerksen,  A. D. Dutoi,  L. Fusti-Molnar,  W. A. Goddard III,  
 A. Golubeva-Zadorozhnaya,  S. R. Gwaltney,  G. Hawkins,  A. Heyden,  
 S. Hirata,  G. Kedziora,  F. J. Keil,  C. Kelley,  Jihan Kim,  R. A. King,  
 R. Z. Khaliullin,  P. P. Korambath,  W. Kurlancheek,  A. M. Lee,  M. S. Lee,  
 S. V. Levchenko,  Ching Yeh Lin,  D. Liotard,  R. C. Lochan,  I. Lotan,  
 P. E. Maslen,  N. Nair,  D. P. O'Neill,  D. Neuhauser,  E. Neuscamman,  
 C. M. Oana,  R. Olson,  B. Peters,  R. Peverati,  P. A. Pieniazek,  
 Y. M. Rhee,  J. Ritchie,  M. A. Rohrdanz,  E. Rosta,  N. J. Russ,  
 H. F. Schaefer III,  N. E. Schultz,  N. Shenvi,  A. C. Simmonett,  A. Sodt,  
 D. Stuck,  K. S. Thanthiriwatte,  V. Vanovschi,  Tao Wang,  A. Warshel,  
 C. F. Williams,  Q. Wu,  X. Xu,  W. Zhang

 Please cite Q-Chem as follows:
 Y. Shao et al., Mol. Phys. 113, 184-215 (2015)
 DOI: 10.1080/00268976.2014.952696

 Q-Chem 5.2.2 for Intel X86 EM64T Linux

 Parts of Q-Chem use Armadillo 9.800.1 (Horizon Scraper).
 http://arma.sourceforge.net/

 Q-Chem begins on Sun Apr 12 05:01:19 2020  

Host: cn0821
0

     Scratch files written to /tmp/ypli/6721342.srvc1/qchem164923//
Warning:  Did not find "$end" marker in "$molecule" section

Checking the input file for inconsistencies... 	...done.

--------------------------------------------------------------
User input:
--------------------------------------------------------------
$rem
   JOBTYPE  sp
   EXCHANGE   omegaB97X-D
   BASIS   6-311+G(2df,2pd)
   max_scf_cycles   250
   geom_opt_max_cycles   1500
   basis2 6-31G*
   scf_algorithm rca_diis
   SYM_IGNORE  TRUE
   print_input   true
   geom_opt_dmax   80
   pop_mulliken false
   XC_GRID 000075000302
$end

$molecule
0 1
C       1.2666365237     -0.0494377253     0.2576251344
C       0.0006115550     0.0469710190     -0.5853501889
H       1.2822651225     -0.9776387962     0.8324070582
H       1.3259248248     0.7779498515     0.9676183991
H       2.1643502394     -0.0241244436     -0.3609148710
C       -1.2669921039     0.0133809840     0.2600925794
H       -0.0204385611     -0.7737084569     -1.3063211913
H       0.0228843931     0.9683417398     -1.1721525503
H       -1.1719595912     -0.7055361986     1.0763684603
H       -2.1382414544     -0.2671253816     -0.3326700467
H       -1.4650410086     0.9909280740     0.7043422356
--------------------------------------------------------------
 ----------------------------------------------------------------
             Standard Nuclear Orientation (Angstroms)
    I     Atom           X                Y                Z
 ----------------------------------------------------------------
    1      C       1.2666365237    -0.0494377253     0.2576251344
    2      C       0.0006115550     0.0469710190    -0.5853501889
    3      H       1.2822651225    -0.9776387962     0.8324070582
    4      H       1.3259248248     0.7779498515     0.9676183991
    5      H       2.1643502394    -0.0241244436    -0.3609148710
    6      C      -1.2669921039     0.0133809840     0.2600925794
    7      H      -0.0204385611    -0.7737084569    -1.3063211913
    8      H       0.0228843931     0.9683417398    -1.1721525503
    9      H      -1.1719595912    -0.7055361986     1.0763684603
   10      H      -2.1382414544    -0.2671253816    -0.3326700467
   11      H      -1.4650410086     0.9909280740     0.7043422356
 ----------------------------------------------------------------
 Nuclear Repulsion Energy =          82.73601510 hartrees
 There are       13 alpha and       13 beta electrons
 Requested basis set is 6-311+G(2df,2pd)
 There are 72 shells and 214 basis functions

 Total QAlloc Memory Limit   2000 MB
 Mega-Array Size       188 MB
 MEM_STATIC part       192 MB

                       Distance Matrix (Angstroms)
             C (  1)   C (  2)   H (  3)   H (  4)   H (  5)   C (  6)
   C (  2)  1.524048
   H (  3)  1.091868  2.168524
   H (  4)  1.091868  2.168524  1.761329
   H (  5)  1.090469  2.176509  1.763882  1.763882
   C (  6)  2.534408  1.524048  2.794347  2.794347  3.487287
   H (  7)  2.151060  1.092592  2.512525  3.064497  2.495791  2.151060
   H (  8)  2.151060  1.092592  3.064497  2.512525  2.495791  2.151060
   H (  9)  2.654723  2.168525  2.481285  2.907230  3.696088  1.091870
   H ( 10)  3.462518  2.176510  3.682676  3.844916  4.309541  1.090471
   H ( 11)  2.957022  2.168525  3.382210  2.811435  3.916323  1.091870
             H (  7)   H (  8)   H (  9)   H ( 10)
   H (  8)  1.747746
   H (  9)  2.647236  3.047190
   H ( 10)  2.385312  2.627085  1.763886
   H ( 11)  3.040327  2.394925  1.761332  1.763885
 
 A cutoff of  1.0D-09 yielded   2530 shell pairs
 There are     22529 function pairs (     27701 Cartesian)
 Smallest overlap matrix eigenvalue = 8.52E-05

 Scale SEOQF with 1.000000e-01/1.000000e-01/1.000000e-01

 Standard Electronic Orientation quadrupole field applied
 Nucleus-field energy     =     0.0000000006 hartrees
 Requested basis set is 6-31G(d)
 There are 28 shells and 58 basis functions
 A cutoff of  1.0D-09 yielded    402 shell pairs
 There are      1773 function pairs (      1968 Cartesian)
 Smallest overlap matrix eigenvalue = 6.69E-03
 Guess from superposition of atomic densities
 Warning:  Energy on first SCF cycle will be non-variational
 SAD guess density has 26.000000 electrons
 Long-range K will be added via erf
 Coulomb attenuation parameter = 0.2 bohr**(-1)
 A restricted hybrid HF-DFT SCF calculation will be
 performed using Relaxed Constraint Minimization + Pulay DIIS
 Exchange:     0.2220 Hartree-Fock + 1.0000 wB97X-D + LR-HF
 Correlation:  1.0000 wB97X-D
 Using Euler-Maclaurin-Lebedev (75,302) quadrature formula
 Dispersion:   Grimme D
 SCF converges when DIIS error is below 1.0E-04
 using 3 threads for integral computing
 -------------------------------------------------------
 OpenMP Integral computing Module                
 Release: version 1.0, May 2013, Q-Chem Inc. Pittsburgh 
 -------------------------------------------------------
 using 3 threads for integral computing
 -------------------------------------------------------
 OpenMP Integral computing Module                
 Release: version 1.0, May 2013, Q-Chem Inc. Pittsburgh 
 -------------------------------------------------------
 ---------------------------------------
  Cycle       Energy         DIIS Error
 ---------------------------------------
    1    -119.6192965189      1.00E-01
    2    -119.0656090216      9.01E-03
    3    -119.0866951445      2.46E-03
    4    -119.1005709712      1.68E-03
    5    -119.1012683284      2.67E-04 Done RCA. Switching to DIIS
    6    -119.1017791043      1.97E-04
    7    -119.1017959970      4.48E-06 Convergence criterion met
 ---------------------------------------
 SCF time:  CPU 26.47 s  wall 9.08 s
 SCF   energy in the small basis set = -119.10179600
 Total energy in the small basis set = -119.10179600
 ----------------------------------------------------
  Cycle       Energy    
 ----------------------------------------------------
    1     -16.5402386264     -1.65E+01
 Long-range K will be added via erf
 Coulomb attenuation parameter = 0.2 bohr**(-1)
 A restricted hybrid HF-DFT SCF calculation will be
 performed using Relaxed Constraint Minimization + Pulay DIIS
 Exchange:     0.2220 Hartree-Fock + 1.0000 wB97X-D + LR-HF
 Correlation:  1.0000 wB97X-D
 Using Euler-Maclaurin-Lebedev (75,302) quadrature formula
 Dispersion:   Grimme D
 SCF converges when DIIS error is below 1.0E-05
 Basis2 calculation detected. Using small basis as guess for larger.
 SCFMinFind is unable to tell whether the solution found is close.
 Resetting ReadMinima to 0 and attempting to follow guess.
 SCFMinFind following SCF Guess.
 using 3 threads for integral computing
 -------------------------------------------------------
 OpenMP Integral computing Module                
 Release: version 1.0, May 2013, Q-Chem Inc. Pittsburgh 
 -------------------------------------------------------
 using 3 threads for integral computing
 -------------------------------------------------------
 OpenMP Integral computing Module                
 Release: version 1.0, May 2013, Q-Chem Inc. Pittsburgh 
 -------------------------------------------------------
 ---------------------------------------
  Cycle       Energy         DIIS Error
 ---------------------------------------
    1    -119.1209107850      4.21E-03
    2    -119.1429509509      5.98E-04 Done RCA. Switching to DIIS
    3    -119.1437839293      4.19E-04
    4    -119.1447449504      4.55E-05
    5    -119.1447596397      1.01E-05
    6    -119.1447603270      3.89E-06 Convergence criterion met
 ---------------------------------------
 SCF time:  CPU 80.80 s  wall 27.33 s
 SCF   energy in the final basis set = -119.14476033
 Total energy in the final basis set = -119.14476033
 
 --------------------------------------------------------------
 
                    Orbital Energies (a.u.)
 --------------------------------------------------------------
 
 Alpha MOs
 -- Occupied --
-10.2737 -10.2652 -10.2647  -0.8811  -0.7770  -0.6777  -0.5455  -0.5246
 -0.4820  -0.4646  -0.4183  -0.4180  -0.4060
 -- Virtual --
  0.0693   0.0862   0.0911   0.0991   0.1245   0.1306   0.1330   0.1405
  0.1448   0.1696   0.1730   0.1910   0.2271   0.2390   0.2481   0.2596
  0.2851   0.2935   0.3113   0.3179   0.3351   0.3477   0.4579   0.4684
  0.4729   0.5063   0.5111   0.5168   0.5406   0.5611   0.5844   0.5907
  0.6164   0.6261   0.6356   0.6419   0.6532   0.6586   0.7083   0.7184
  0.7292   0.7654   0.8117   0.8612   0.8760   0.8919   0.9015   0.9604
  1.0012   1.0311   1.0835   1.1246   1.1392   1.1812   1.1912   1.2125
  1.2397   1.2487   1.2580   1.2704   1.2799   1.3082   1.3434   1.3498
  1.3734   1.3915   1.4179   1.4504   1.4580   1.4609   1.4690   1.5034
  1.5273   1.5619   1.5950   1.6068   1.6354   1.6426   1.6724   1.6978
  1.7430   2.3685   2.4290   2.4766   2.4916   2.5409   2.5830   2.6144
  2.6432   2.6930   2.8082   2.8274   2.8395   2.9024   2.9262   2.9329
  2.9375   2.9495   3.0045   3.0281   3.0526   3.0642   3.0807   3.1044
  3.1345   3.1391   3.1675   3.1877   3.2011   3.2383   3.2800   3.2951
  3.3105   3.3327   3.3444   3.3533   3.3774   3.4000   3.4048   3.4354
  3.4442   3.4854   3.5025   3.5154   3.5695   3.5816   3.6042   3.6191
  3.6287   3.6652   3.6877   3.7046   3.7719   3.7977   3.8561   3.8775
  3.9037   3.9340   3.9508   3.9751   3.9935   4.0154   4.0520   4.0650
  4.0860   4.0904   4.1144   4.1309   4.1512   4.1713   4.1907   4.2052
  4.2278   4.2533   4.2901   4.3481   4.3609   4.4035   4.4188   4.4336
  4.4609   4.5433   4.5916   4.6114   4.6369   4.8138   4.8353   4.9180
  4.9286   4.9564   4.9649   4.9825   5.0225   5.0503   5.0544   5.1027
  5.1355   5.2223   5.2385   5.2767   5.2933   5.3425   5.3522   5.3642
  5.3753   5.3937   5.4270   5.5073   5.5300   5.5483   5.6362   5.7260
  5.9532   6.3769   6.3825   6.3969   6.4171   6.4782  25.1825  25.4260
 25.4579
 --------------------------------------------------------------
 
 -----------------------------------------------------------------
                    Cartesian Multipole Moments
 -----------------------------------------------------------------
    Charge (ESU x 10^10)
                -0.0000
    Dipole Moment (Debye)
         X      -0.0001      Y       0.0098      Z      -0.0852
       Tot       0.0858
    Quadrupole Moments (Debye-Ang)
        XX     -22.1865     XY       0.0361     YY     -21.3432
        XZ       0.0179     YZ       0.0330     ZZ     -21.8467
    Octopole Moments (Debye-Ang^2)
       XXX       0.0784    XXY      -0.1477    XYY      -0.1195
       YYY       0.3043    XXZ      -1.5131    XYZ      -0.1998
       YYZ       0.3396    XZZ       0.0535    YZZ      -0.3119
       ZZZ      -0.3170
    Hexadecapole Moments (Debye-Ang^3)
      XXXX    -202.6412   XXXY       2.8144   XXYY     -41.8591
      XYYY       1.1390   YYYY     -44.1986   XXXZ      -0.1115
      XXYZ       1.0019   XYYZ       0.2156   YYYZ       0.8420
      XXZZ     -45.4383   XYZZ       1.0952   YYZZ     -17.3190
      XZZZ       0.1053   YZZZ       0.9454   ZZZZ     -71.7985
 -----------------------------------------------------------------
Archival summary:
1\1\cn0821\SP\ProcedureUnspecified\BasisUnspecified\38\r0852400\SunApr1205:02:002020SunApr1205:02:002020\0\\#,ProcedureUnspecified,BasisUnspecified,\\0,1\C\H,1,1.09259\H,1,1.09259,2,106.225\C,1,1.52405,2,109.48,3,-118.121,0\H,4,1.09047,1,111.633,2,78.0357,0\H,4,1.09187,1,110.906,2,-161.666,0\H,4,1.09187,1,110.906,2,-42.2628,0\C,1,1.52405,2,109.48,3,118.121,0\H,8,1.09047,1,111.633,2,-58.0358,0\H,8,1.09187,1,110.906,2,62.2628,0\H,8,1.09187,1,110.906,2,-178.334,0\\\@

 Total job time:  40.50s(wall), 112.26s(cpu) 
 Sun Apr 12 05:02:00 2020

        *************************************************************
        *                                                           *
        *  Thank you very much for using Q-Chem.  Have a nice day.  *
        *                                                           *
        *************************************************************


