                  Welcome to Q-Chem
     A Quantum Leap Into The Future Of Chemistry


 Q-Chem 5.2 (devel), Q-Chem, Inc., Pleasanton, CA (2019)

 Yihan Shao,  Zhengting Gan,  E. Epifanovsky,  A. T. B. Gilbert,  M. Wormit,  
 J. Kussmann,  A. W. Lange,  A. Behn,  Jia Deng,  Xintian Feng,  D. Ghosh,  
 M. Goldey,  P. R. Horn,  L. D. Jacobson,  I. Kaliman,  T. Kus,  A. Landau,  
 Jie Liu,  E. I. Proynov,  R. M. Richard,  R. P. Steele,  E. J. Sundstrom,  
 H. L. Woodcock III,  P. M. Zimmerman,  D. Zuev,  B. Alam,  B. Albrecht,  
 E. Alguire,  S. A. Baeppler,  D. Barton,  Z. Benda,  Y. A. Bernard,  
 E. J. Berquist,  K. B. Bravaya,  H. Burton,  K. Carter-Fenk,  D. Casanova,  
 Chun-Min Chang,  Yunqing Chen,  A. Chien,  K. D. Closser,  M. P. Coons,  
 S. Coriani,  S. Dasgupta,  A. L. Dempwolff,  M. Diedenhofen,  Hainam Do,  
 R. G. Edgar,  Po-Tung Fang,  S. Faraji,  S. Fatehi,  Qingguo Feng,  
 J. Fosso-Tande,  J. Gayvert,  Qinghui Ge,  A. Ghysels,  G. Gidofalvi,  
 J. Gomes,  J. Gonthier,  A. Gunina,  D. Hait,  M. W. D. Hanson-Heine,  
 P. H. P. Harbach,  A. W. Hauser,  M. F. Herbst,  J. E. Herr,  
 E. G. Hohenstein,  Z. C. Holden,  Kerwin Hui,  B. C. Huynh,  T.-C. Jagau,  
 Hyunjun Ji,  B. Kaduk,  K. Khistyaev,  Jaehoon Kim,  P. Klunzinger,  K. Koh,  
 D. Kosenkov,  L. Koulias,  T. Kowalczyk,  C. M. Krauter,  A. Kunitsa,  
 Ka Un Lao,  A. Laurent,  K. V. Lawler,  Joonho Lee,  D. Lefrancois,  
 S. Lehtola,  D. S. Levine,  Yi-Pei Li,  You-Sheng Lin,  Fenglai Liu,  
 Kuan-Yu Liu,  E. Livshits,  M. Loipersberger,  A. Luenser,  P. Manohar,  
 E. Mansoor,  S. F. Manzer,  Shan-Ping Mao,  Yuezhi Mao,  N. Mardirossian,  
 A. V. Marenich,  T. Markovich,  L. A. Martinez-Martinez,  S. A. Maurer,  
 N. J. Mayhall,  S. C. McKenzie,  J.-M. Mewes,  P. Morgante,  A. F. Morrison,  
 J. W. Mullinax,  K. Nanda,  T. S. Nguyen-Beck,  R. Olivares-Amaya,  
 J. A. Parkhill,  S. K. Paul,  Zheng Pei,  T. M. Perrine,  F. Plasser,  
 P. Pokhilko,  S. Prager,  A. Prociuk,  E. Ramos,  B. Rana,  D. R. Rehn,  
 F. Rob,  M. Scheurer,  M. Schneider,  N. Sergueev,  S. M. Sharada,  
 S. Sharma,  D. W. Small,  T. Stauch,  C. J. Stein,  T. Stein,  Yu-Chuan Su,  
 S. P. Veccham,  A. J. W. Thom,  A. Tkatchenko,  T. Tsuchimochi,  
 N. M. Tubman,  L. Vogt,  M. L. Vidal,  O. Vydrov,  M. A. Watson,  J. Wenzel,  
 M. de Wergifosse,  T. A. Wesolowski,  A. White,  J. Witte,  A. Yamada,  
 Jun Yang,  K. Yao,  S. Yeganeh,  S. R. Yost,  Zhi-Qiang You,  A. Zech,  
 Igor Ying Zhang,  Xing Zhang,  Yan Zhao,  Ying Zhu,  B. R. Brooks,  
 G. K. L. Chan,  C. J. Cramer,  M. S. Gordon,  W. J. Hehre,  A. Klamt,  
 M. W. Schmidt,  C. D. Sherrill,  D. G. Truhlar,  A. Aspuru-Guzik,  R. Baer,  
 A. T. Bell,  N. A. Besley,  Jeng-Da Chai,  A. E. DePrince, III,  
 R. A. DiStasio Jr.,  A. Dreuw,  B. D. Dunietz,  T. R. Furlani,  
 Chao-Ping Hsu,  Yousung Jung,  Jing Kong,  D. S. Lambrecht,  WanZhen Liang,  
 C. Ochsenfeld,  V. A. Rassolov,  L. V. Slipchenko,  J. E. Subotnik,  
 T. Van Voorhis,  J. M. Herbert,  A. I. Krylov,  P. M. W. Gill,  M. Head-Gordon

 Contributors to earlier versions of Q-Chem not listed above: 
 R. D. Adamson,  B. Austin,  J. Baker,  G. J. O. Beran,  K. Brandhorst,  
 S. T. Brown,  E. F. C. Byrd,  A. K. Chakraborty,  C.-L. Cheng,  
 Siu Hung Chien,  D. M. Chipman,  D. L. Crittenden,  H. Dachsel,  
 R. J. Doerksen,  A. D. Dutoi,  L. Fusti-Molnar,  W. A. Goddard III,  
 A. Golubeva-Zadorozhnaya,  S. R. Gwaltney,  G. Hawkins,  A. Heyden,  
 S. Hirata,  G. Kedziora,  F. J. Keil,  C. Kelley,  Jihan Kim,  R. A. King,  
 R. Z. Khaliullin,  P. P. Korambath,  W. Kurlancheek,  A. M. Lee,  M. S. Lee,  
 S. V. Levchenko,  Ching Yeh Lin,  D. Liotard,  R. C. Lochan,  I. Lotan,  
 P. E. Maslen,  N. Nair,  D. P. O'Neill,  D. Neuhauser,  E. Neuscamman,  
 C. M. Oana,  R. Olson,  B. Peters,  R. Peverati,  P. A. Pieniazek,  
 Y. M. Rhee,  J. Ritchie,  M. A. Rohrdanz,  E. Rosta,  N. J. Russ,  
 H. F. Schaefer III,  N. E. Schultz,  N. Shenvi,  A. C. Simmonett,  A. Sodt,  
 D. Stuck,  K. S. Thanthiriwatte,  V. Vanovschi,  Tao Wang,  A. Warshel,  
 C. F. Williams,  Q. Wu,  X. Xu,  W. Zhang

 Please cite Q-Chem as follows:
 Y. Shao et al., Mol. Phys. 113, 184-215 (2015)
 DOI: 10.1080/00268976.2014.952696

 Q-Chem 5.2.2 for Intel X86 EM64T Linux

 Parts of Q-Chem use Armadillo 9.800.1 (Horizon Scraper).
 http://arma.sourceforge.net/

 Q-Chem begins on Sun Apr 12 05:22:23 2020  

Host: cn0821
0

     Scratch files written to /tmp/ypli/6721342.srvc1/qchem168287//
Warning:  Did not find "$end" marker in "$molecule" section

Checking the input file for inconsistencies... 	...done.

--------------------------------------------------------------
User input:
--------------------------------------------------------------
$rem
   JOBTYPE  sp
   EXCHANGE   omegaB97X-D
   BASIS   6-311+G(2df,2pd)
   max_scf_cycles   250
   geom_opt_max_cycles   1500
   basis2 6-31G*
   scf_algorithm rca_diis
   SYM_IGNORE  TRUE
   print_input   true
   geom_opt_dmax   80
   pop_mulliken false
   XC_GRID 000075000302
$end

$molecule
0 1
C       1.1232290098     -0.5923361052     -0.1831306895
C       0.1392936890     0.5712960534     -0.1592970947
H       0.7484927153     -1.4067416506     -0.8064316851
H       1.2787433286     -0.9917117820     0.8211114021
H       2.0941824572     -0.2897802456     -0.5766185068
C       -1.2254457550     0.1699972444     0.3876653117
H       0.0236898752     0.9714442677     -1.1693892635
H       0.5498513352     1.3832735973     0.4456028251
H       -1.8796861417     -0.1778958163     -0.4143586086
H       -1.7206713640     1.0048515017     0.8846737216
H       -1.1316792101     -0.6423963987     1.1112176068
--------------------------------------------------------------
 ----------------------------------------------------------------
             Standard Nuclear Orientation (Angstroms)
    I     Atom           X                Y                Z
 ----------------------------------------------------------------
    1      C       1.1232290098    -0.5923361052    -0.1831306895
    2      C       0.1392936890     0.5712960534    -0.1592970947
    3      H       0.7484927153    -1.4067416506    -0.8064316851
    4      H       1.2787433286    -0.9917117820     0.8211114021
    5      H       2.0941824572    -0.2897802456    -0.5766185068
    6      C      -1.2254457550     0.1699972444     0.3876653117
    7      H       0.0236898752     0.9714442677    -1.1693892635
    8      H       0.5498513352     1.3832735973     0.4456028251
    9      H      -1.8796861417    -0.1778958163    -0.4143586086
   10      H      -1.7206713640     1.0048515017     0.8846737216
   11      H      -1.1316792101    -0.6423963987     1.1112176068
 ----------------------------------------------------------------
 Nuclear Repulsion Energy =          82.74128678 hartrees
 There are       13 alpha and       13 beta electrons
 Requested basis set is 6-311+G(2df,2pd)
 There are 72 shells and 214 basis functions

 Total QAlloc Memory Limit   2000 MB
 Mega-Array Size       188 MB
 MEM_STATIC part       192 MB

                       Distance Matrix (Angstroms)
             C (  1)   C (  2)   H (  3)   H (  4)   H (  5)   C (  6)
   C (  2)  1.524053
   H (  3)  1.091874  2.168534
   H (  4)  1.091874  2.168534  1.761338
   H (  5)  1.090469  2.176511  1.763887  1.763887
   C (  6)  2.534410  1.524048  2.794353  2.794353  3.487287
   H (  7)  2.151070  1.092597  2.512538  3.064512  2.495797  2.151064
   H (  8)  2.151070  1.092597  3.064512  2.512538  2.495797  2.151064
   H (  9)  3.040185  2.168554  2.927645  3.487744  3.978753  1.091926
   H ( 10)  3.432052  2.176537  3.843487  3.603719  4.285389  1.090526
   H ( 11)  2.600472  2.168555  2.792248  2.452819  3.657774  1.091927
             H (  7)   H (  8)   H (  9)   H ( 10)
   H (  8)  1.747755
   H (  9)  2.348168  3.013210
   H ( 10)  2.695011  2.343344  1.763990
   H ( 11)  3.023330  2.715498  1.761436  1.763990
 
 A cutoff of  1.0D-09 yielded   2530 shell pairs
 There are     22520 function pairs (     27692 Cartesian)
 Smallest overlap matrix eigenvalue = 8.34E-05

 Scale SEOQF with 1.000000e-01/1.000000e-01/1.000000e-01

 Standard Electronic Orientation quadrupole field applied
 Nucleus-field energy     =     0.0000000012 hartrees
 Requested basis set is 6-31G(d)
 There are 28 shells and 58 basis functions
 A cutoff of  1.0D-09 yielded    402 shell pairs
 There are      1773 function pairs (      1968 Cartesian)
 Smallest overlap matrix eigenvalue = 6.58E-03
 Guess from superposition of atomic densities
 Warning:  Energy on first SCF cycle will be non-variational
 SAD guess density has 26.000000 electrons
 Long-range K will be added via erf
 Coulomb attenuation parameter = 0.2 bohr**(-1)
 A restricted hybrid HF-DFT SCF calculation will be
 performed using Relaxed Constraint Minimization + Pulay DIIS
 Exchange:     0.2220 Hartree-Fock + 1.0000 wB97X-D + LR-HF
 Correlation:  1.0000 wB97X-D
 Using Euler-Maclaurin-Lebedev (75,302) quadrature formula
 Dispersion:   Grimme D
 SCF converges when DIIS error is below 1.0E-04
 using 3 threads for integral computing
 -------------------------------------------------------
 OpenMP Integral computing Module                
 Release: version 1.0, May 2013, Q-Chem Inc. Pittsburgh 
 -------------------------------------------------------
 using 3 threads for integral computing
 -------------------------------------------------------
 OpenMP Integral computing Module                
 Release: version 1.0, May 2013, Q-Chem Inc. Pittsburgh 
 -------------------------------------------------------
 ---------------------------------------
  Cycle       Energy         DIIS Error
 ---------------------------------------
    1    -119.6203264271      1.00E-01
    2    -119.0642071119      9.01E-03
    3    -119.0853146821      2.46E-03
    4    -119.0992125664      1.68E-03
    5    -119.0999088375      2.66E-04 Done RCA. Switching to DIIS
    6    -119.1004191070      1.97E-04
    7    -119.1004359416      4.44E-06 Convergence criterion met
 ---------------------------------------
 SCF time:  CPU 31.06 s  wall 10.75 s
 SCF   energy in the small basis set = -119.10043594
 Total energy in the small basis set = -119.10043594
 ----------------------------------------------------
  Cycle       Energy    
 ----------------------------------------------------
    1     -16.5410804159     -1.65E+01
 Long-range K will be added via erf
 Coulomb attenuation parameter = 0.2 bohr**(-1)
 A restricted hybrid HF-DFT SCF calculation will be
 performed using Relaxed Constraint Minimization + Pulay DIIS
 Exchange:     0.2220 Hartree-Fock + 1.0000 wB97X-D + LR-HF
 Correlation:  1.0000 wB97X-D
 Using Euler-Maclaurin-Lebedev (75,302) quadrature formula
 Dispersion:   Grimme D
 SCF converges when DIIS error is below 1.0E-05
 Basis2 calculation detected. Using small basis as guess for larger.
 SCFMinFind is unable to tell whether the solution found is close.
 Resetting ReadMinima to 0 and attempting to follow guess.
 SCFMinFind following SCF Guess.
 using 3 threads for integral computing
 -------------------------------------------------------
 OpenMP Integral computing Module                
 Release: version 1.0, May 2013, Q-Chem Inc. Pittsburgh 
 -------------------------------------------------------
 using 3 threads for integral computing
 -------------------------------------------------------
 OpenMP Integral computing Module                
 Release: version 1.0, May 2013, Q-Chem Inc. Pittsburgh 
 -------------------------------------------------------
 ---------------------------------------
  Cycle       Energy         DIIS Error
 ---------------------------------------
    1    -119.1195961880      4.21E-03
    2    -119.1416277626      5.98E-04 Done RCA. Switching to DIIS
    3    -119.1424608837      4.20E-04
    4    -119.1434266024      4.55E-05
    5    -119.1434412915      1.01E-05
    6    -119.1434419820      3.91E-06 Convergence criterion met
 ---------------------------------------
 SCF time:  CPU 94.31 s  wall 31.89 s
 SCF   energy in the final basis set = -119.14344198
 Total energy in the final basis set = -119.14344198
 
 --------------------------------------------------------------
 
                    Orbital Energies (a.u.)
 --------------------------------------------------------------
 
 Alpha MOs
 -- Occupied --
-10.2733 -10.2652 -10.2643  -0.8811  -0.7769  -0.6776  -0.5452  -0.5250
 -0.4813  -0.4657  -0.4185  -0.4174  -0.4047
 -- Virtual --
  0.0695   0.0865   0.0911   0.0996   0.1238   0.1310   0.1327   0.1395
  0.1452   0.1684   0.1737   0.1908   0.2219   0.2387   0.2514   0.2577
  0.2877   0.2984   0.3112   0.3238   0.3344   0.3471   0.4575   0.4706
  0.4757   0.5032   0.5115   0.5169   0.5346   0.5601   0.5835   0.5923
  0.6109   0.6252   0.6328   0.6407   0.6538   0.6563   0.7072   0.7139
  0.7314   0.7660   0.8087   0.8561   0.8827   0.9062   0.9222   0.9636
  1.0013   1.0226   1.0938   1.1151   1.1438   1.1744   1.1884   1.2216
  1.2354   1.2508   1.2554   1.2725   1.2746   1.3176   1.3351   1.3608
  1.3718   1.3895   1.4285   1.4432   1.4531   1.4646   1.4668   1.5152
  1.5243   1.5511   1.5810   1.6003   1.6336   1.6423   1.6679   1.6945
  1.7434   2.3612   2.4116   2.4721   2.4789   2.5293   2.6110   2.6318
  2.6539   2.6817   2.8021   2.8212   2.8375   2.8967   2.9263   2.9330
  2.9377   2.9584   3.0076   3.0361   3.0483   3.0639   3.0809   3.1062
  3.1309   3.1435   3.1707   3.1874   3.1992   3.2402   3.2765   3.2964
  3.3004   3.3225   3.3450   3.3587   3.3735   3.4074   3.4162   3.4365
  3.4400   3.4778   3.5052   3.5271   3.5692   3.5834   3.6105   3.6193
  3.6367   3.6525   3.6976   3.7020   3.7616   3.7879   3.8348   3.8712
  3.8825   3.9295   3.9495   3.9793   4.0085   4.0171   4.0552   4.0690
  4.0891   4.0905   4.1147   4.1280   4.1492   4.1731   4.2049   4.2111
  4.2296   4.2640   4.3029   4.3177   4.3466   4.4077   4.4182   4.4479
  4.4803   4.5231   4.5930   4.6082   4.6449   4.8145   4.8403   4.9134
  4.9356   4.9412   4.9726   4.9901   5.0079   5.0523   5.0572   5.1134
  5.1419   5.2119   5.2314   5.2794   5.2822   5.3231   5.3488   5.3659
  5.3726   5.3958   5.4152   5.5100   5.5199   5.5402   5.6392   5.7198
  5.9588   6.3627   6.3799   6.4013   6.4224   6.4873  25.1636  25.4180
 25.4639
 --------------------------------------------------------------
 
 -----------------------------------------------------------------
                    Cartesian Multipole Moments
 -----------------------------------------------------------------
    Charge (ESU x 10^10)
                -0.0000
    Dipole Moment (Debye)
         X       0.0175      Y       0.0780      Z      -0.0291
       Tot       0.0851
    Quadrupole Moments (Debye-Ang)
        XX     -22.1379     XY       0.1088     YY     -21.8354
        XZ       0.2174     YZ       0.0984     ZZ     -21.4073
    Octopole Moments (Debye-Ang^2)
       XXX       0.5377    XXY       0.2093    XYY      -0.6611
       YYY      -1.2561    XXZ      -1.1577    XYZ      -0.4401
       YYZ       0.0791    XZZ      -0.2595    YZZ      -0.6941
       ZZZ      -1.6908
    Hexadecapole Moments (Debye-Ang^3)
      XXXX    -182.2707   XXXY      20.1570   XXYY     -44.4027
      XYYY      19.3133   YYYY     -81.5771   XXXZ      17.1427
      XXYZ      -0.0289   XYYZ       5.5230   YYYZ      -0.1615
      XXZZ     -39.0279   XYZZ       6.2266   YYZZ     -21.1152
      XZZZ      18.3376   YZZZ      -2.8528   ZZZZ     -55.2343
 -----------------------------------------------------------------
Archival summary:
1\1\cn0821\SP\ProcedureUnspecified\BasisUnspecified\38\r0852400\SunApr1205:23:092020SunApr1205:23:092020\0\\#,ProcedureUnspecified,BasisUnspecified,\\0,1\C\H,1,1.0926\H,1,1.0926,2,106.225\C,1,1.52405,2,109.48,3,118.121,0\H,4,1.09053,1,111.631,2,-88.0373,0\H,4,1.09193,1,110.905,2,32.2613,0\H,4,1.09193,1,110.905,2,151.664,0\C,1,1.52405,2,109.48,3,-118.121,0\H,8,1.09047,1,111.632,2,58.0358,0\H,8,1.09187,1,110.906,2,178.334,0\H,8,1.09187,1,110.906,2,-62.2626,0\\\@

 Total job time:  46.78s(wall), 130.42s(cpu) 
 Sun Apr 12 05:23:09 2020

        *************************************************************
        *                                                           *
        *  Thank you very much for using Q-Chem.  Have a nice day.  *
        *                                                           *
        *************************************************************


