                  Welcome to Q-Chem
     A Quantum Leap Into The Future Of Chemistry


 Q-Chem 5.2 (devel), Q-Chem, Inc., Pleasanton, CA (2019)

 Yihan Shao,  Zhengting Gan,  E. Epifanovsky,  A. T. B. Gilbert,  M. Wormit,  
 J. Kussmann,  A. W. Lange,  A. Behn,  Jia Deng,  Xintian Feng,  D. Ghosh,  
 M. Goldey,  P. R. Horn,  L. D. Jacobson,  I. Kaliman,  T. Kus,  A. Landau,  
 Jie Liu,  E. I. Proynov,  R. M. Richard,  R. P. Steele,  E. J. Sundstrom,  
 H. L. Woodcock III,  P. M. Zimmerman,  D. Zuev,  B. Alam,  B. Albrecht,  
 E. Alguire,  S. A. Baeppler,  D. Barton,  Z. Benda,  Y. A. Bernard,  
 E. J. Berquist,  K. B. Bravaya,  H. Burton,  K. Carter-Fenk,  D. Casanova,  
 Chun-Min Chang,  Yunqing Chen,  A. Chien,  K. D. Closser,  M. P. Coons,  
 S. Coriani,  S. Dasgupta,  A. L. Dempwolff,  M. Diedenhofen,  Hainam Do,  
 R. G. Edgar,  Po-Tung Fang,  S. Faraji,  S. Fatehi,  Qingguo Feng,  
 J. Fosso-Tande,  J. Gayvert,  Qinghui Ge,  A. Ghysels,  G. Gidofalvi,  
 J. Gomes,  J. Gonthier,  A. Gunina,  D. Hait,  M. W. D. Hanson-Heine,  
 P. H. P. Harbach,  A. W. Hauser,  M. F. Herbst,  J. E. Herr,  
 E. G. Hohenstein,  Z. C. Holden,  Kerwin Hui,  B. C. Huynh,  T.-C. Jagau,  
 Hyunjun Ji,  B. Kaduk,  K. Khistyaev,  Jaehoon Kim,  P. Klunzinger,  K. Koh,  
 D. Kosenkov,  L. Koulias,  T. Kowalczyk,  C. M. Krauter,  A. Kunitsa,  
 Ka Un Lao,  A. Laurent,  K. V. Lawler,  Joonho Lee,  D. Lefrancois,  
 S. Lehtola,  D. S. Levine,  Yi-Pei Li,  You-Sheng Lin,  Fenglai Liu,  
 Kuan-Yu Liu,  E. Livshits,  M. Loipersberger,  A. Luenser,  P. Manohar,  
 E. Mansoor,  S. F. Manzer,  Shan-Ping Mao,  Yuezhi Mao,  N. Mardirossian,  
 A. V. Marenich,  T. Markovich,  L. A. Martinez-Martinez,  S. A. Maurer,  
 N. J. Mayhall,  S. C. McKenzie,  J.-M. Mewes,  P. Morgante,  A. F. Morrison,  
 J. W. Mullinax,  K. Nanda,  T. S. Nguyen-Beck,  R. Olivares-Amaya,  
 J. A. Parkhill,  S. K. Paul,  Zheng Pei,  T. M. Perrine,  F. Plasser,  
 P. Pokhilko,  S. Prager,  A. Prociuk,  E. Ramos,  B. Rana,  D. R. Rehn,  
 F. Rob,  M. Scheurer,  M. Schneider,  N. Sergueev,  S. M. Sharada,  
 S. Sharma,  D. W. Small,  T. Stauch,  C. J. Stein,  T. Stein,  Yu-Chuan Su,  
 S. P. Veccham,  A. J. W. Thom,  A. Tkatchenko,  T. Tsuchimochi,  
 N. M. Tubman,  L. Vogt,  M. L. Vidal,  O. Vydrov,  M. A. Watson,  J. Wenzel,  
 M. de Wergifosse,  T. A. Wesolowski,  A. White,  J. Witte,  A. Yamada,  
 Jun Yang,  K. Yao,  S. Yeganeh,  S. R. Yost,  Zhi-Qiang You,  A. Zech,  
 Igor Ying Zhang,  Xing Zhang,  Yan Zhao,  Ying Zhu,  B. R. Brooks,  
 G. K. L. Chan,  C. J. Cramer,  M. S. Gordon,  W. J. Hehre,  A. Klamt,  
 M. W. Schmidt,  C. D. Sherrill,  D. G. Truhlar,  A. Aspuru-Guzik,  R. Baer,  
 A. T. Bell,  N. A. Besley,  Jeng-Da Chai,  A. E. DePrince, III,  
 R. A. DiStasio Jr.,  A. Dreuw,  B. D. Dunietz,  T. R. Furlani,  
 Chao-Ping Hsu,  Yousung Jung,  Jing Kong,  D. S. Lambrecht,  WanZhen Liang,  
 C. Ochsenfeld,  V. A. Rassolov,  L. V. Slipchenko,  J. E. Subotnik,  
 T. Van Voorhis,  J. M. Herbert,  A. I. Krylov,  P. M. W. Gill,  M. Head-Gordon

 Contributors to earlier versions of Q-Chem not listed above: 
 R. D. Adamson,  B. Austin,  J. Baker,  G. J. O. Beran,  K. Brandhorst,  
 S. T. Brown,  E. F. C. Byrd,  A. K. Chakraborty,  C.-L. Cheng,  
 Siu Hung Chien,  D. M. Chipman,  D. L. Crittenden,  H. Dachsel,  
 R. J. Doerksen,  A. D. Dutoi,  L. Fusti-Molnar,  W. A. Goddard III,  
 A. Golubeva-Zadorozhnaya,  S. R. Gwaltney,  G. Hawkins,  A. Heyden,  
 S. Hirata,  G. Kedziora,  F. J. Keil,  C. Kelley,  Jihan Kim,  R. A. King,  
 R. Z. Khaliullin,  P. P. Korambath,  W. Kurlancheek,  A. M. Lee,  M. S. Lee,  
 S. V. Levchenko,  Ching Yeh Lin,  D. Liotard,  R. C. Lochan,  I. Lotan,  
 P. E. Maslen,  N. Nair,  D. P. O'Neill,  D. Neuhauser,  E. Neuscamman,  
 C. M. Oana,  R. Olson,  B. Peters,  R. Peverati,  P. A. Pieniazek,  
 Y. M. Rhee,  J. Ritchie,  M. A. Rohrdanz,  E. Rosta,  N. J. Russ,  
 H. F. Schaefer III,  N. E. Schultz,  N. Shenvi,  A. C. Simmonett,  A. Sodt,  
 D. Stuck,  K. S. Thanthiriwatte,  V. Vanovschi,  Tao Wang,  A. Warshel,  
 C. F. Williams,  Q. Wu,  X. Xu,  W. Zhang

 Please cite Q-Chem as follows:
 Y. Shao et al., Mol. Phys. 113, 184-215 (2015)
 DOI: 10.1080/00268976.2014.952696

 Q-Chem 5.2.2 for Intel X86 EM64T Linux

 Parts of Q-Chem use Armadillo 9.800.1 (Horizon Scraper).
 http://arma.sourceforge.net/

 Q-Chem begins on Sun Apr 12 05:33:15 2020  

Host: cn0821
0

     Scratch files written to /tmp/ypli/6721342.srvc1/qchem169941//
Warning:  Did not find "$end" marker in "$molecule" section

Checking the input file for inconsistencies... 	...done.

--------------------------------------------------------------
User input:
--------------------------------------------------------------
$rem
   JOBTYPE  sp
   EXCHANGE   omegaB97X-D
   BASIS   6-311+G(2df,2pd)
   max_scf_cycles   250
   geom_opt_max_cycles   1500
   basis2 6-31G*
   scf_algorithm rca_diis
   SYM_IGNORE  TRUE
   print_input   true
   geom_opt_dmax   80
   pop_mulliken false
   XC_GRID 000075000302
$end

$molecule
0 1
C       1.3964224585     -0.0001383058     0.2615978059
C       -0.0000000437     0.0018674699     -0.3863475930
H       1.6018480873     -0.8842559091     0.8670978311
H       1.6048834101     0.8823946706     0.8686928321
H       2.1047437400     0.0022062252     -0.5699512592
C       -1.3964226392     -0.0001384419     0.2615975664
H       0.0000004684     -0.8603482800     -1.0601440713
H       -0.0000002555     0.8580674148     -1.0673376020
H       -1.6018481823     -0.8842557625     0.8670980138
H       -2.1047441125     0.0022069759     -0.5699511783
H       -1.6048829916     0.8823946089     0.8686926734
--------------------------------------------------------------
 ----------------------------------------------------------------
             Standard Nuclear Orientation (Angstroms)
    I     Atom           X                Y                Z
 ----------------------------------------------------------------
    1      C       1.3964224585    -0.0001383058     0.2615978059
    2      C      -0.0000000437     0.0018674699    -0.3863475930
    3      H       1.6018480873    -0.8842559091     0.8670978311
    4      H       1.6048834101     0.8823946706     0.8686928321
    5      H       2.1047437400     0.0022062252    -0.5699512592
    6      C      -1.3964226392    -0.0001384419     0.2615975664
    7      H       0.0000004684    -0.8603482800    -1.0601440713
    8      H      -0.0000002555     0.8580674148    -1.0673376020
    9      H      -1.6018481823    -0.8842557625     0.8670980138
   10      H      -2.1047441125     0.0022069759    -0.5699511783
   11      H      -1.6048829916     0.8823946089     0.8686926734
 ----------------------------------------------------------------
 Nuclear Repulsion Energy =          81.14764927 hartrees
 There are       13 alpha and       13 beta electrons
 Requested basis set is 6-311+G(2df,2pd)
 There are 72 shells and 214 basis functions

 Total QAlloc Memory Limit   2000 MB
 Mega-Array Size       188 MB
 MEM_STATIC part       192 MB

                       Distance Matrix (Angstroms)
             C (  1)   C (  2)   H (  3)   H (  4)   H (  5)   C (  6)
   C (  2)  1.539426
   H (  3)  1.091098  2.218616
   H (  4)  1.091277  2.219483  1.766654
   H (  5)  1.092336  2.112737  1.761769  1.759059
   C (  6)  2.792845  1.539426  3.184010  3.186733  3.598562
   H (  7)  2.106409  1.094266  2.506142  3.055031  2.326851  2.106409
   H (  8)  2.110114  1.093995  3.056738  2.514847  2.325906  2.110114
   H (  9)  3.184010  2.218616  3.203696  3.661172  4.073052  1.091098
   H ( 10)  3.598562  2.112737  4.073052  4.075017  4.209488  1.092336
   H ( 11)  3.186732  2.219483  3.661172  3.209766  4.075016  1.091277
             H (  7)   H (  8)   H (  9)   H ( 10)
   H (  8)  1.718431
   H (  9)  2.506143  3.056738
   H ( 10)  2.326852  2.325906  1.761769
   H ( 11)  3.055031  2.514847  1.766654  1.759059
 
 A cutoff of  1.0D-09 yielded   2490 shell pairs
 There are     22234 function pairs (     27355 Cartesian)
 Smallest overlap matrix eigenvalue = 8.66E-05

 Scale SEOQF with 1.000000e-01/1.000000e-01/1.000000e-01

 Standard Electronic Orientation quadrupole field applied
 Nucleus-field energy     =     0.0000000010 hartrees
 Requested basis set is 6-31G(d)
 There are 28 shells and 58 basis functions
 A cutoff of  1.0D-09 yielded    400 shell pairs
 There are      1771 function pairs (      1966 Cartesian)
 Smallest overlap matrix eigenvalue = 7.25E-03
 Guess from superposition of atomic densities
 Warning:  Energy on first SCF cycle will be non-variational
 SAD guess density has 26.000000 electrons
 Long-range K will be added via erf
 Coulomb attenuation parameter = 0.2 bohr**(-1)
 A restricted hybrid HF-DFT SCF calculation will be
 performed using Relaxed Constraint Minimization + Pulay DIIS
 Exchange:     0.2220 Hartree-Fock + 1.0000 wB97X-D + LR-HF
 Correlation:  1.0000 wB97X-D
 Using Euler-Maclaurin-Lebedev (75,302) quadrature formula
 Dispersion:   Grimme D
 SCF converges when DIIS error is below 1.0E-04
 using 3 threads for integral computing
 -------------------------------------------------------
 OpenMP Integral computing Module                
 Release: version 1.0, May 2013, Q-Chem Inc. Pittsburgh 
 -------------------------------------------------------
 using 3 threads for integral computing
 -------------------------------------------------------
 OpenMP Integral computing Module                
 Release: version 1.0, May 2013, Q-Chem Inc. Pittsburgh 
 -------------------------------------------------------
 ---------------------------------------
  Cycle       Energy         DIIS Error
 ---------------------------------------
    1    -119.5757862167      9.91E-02
    2    -119.0583720661      8.66E-03
    3    -119.0783708107      2.55E-03
    4    -119.0908320414      1.75E-03
    5    -119.0915968069      2.94E-04 Done RCA. Switching to DIIS
    6    -119.0921430082      2.19E-04
    7    -119.0921638923      4.13E-06 Convergence criterion met
 ---------------------------------------
 SCF time:  CPU 32.93 s  wall 11.41 s
 SCF   energy in the small basis set = -119.09216389
 Total energy in the small basis set = -119.09216389
 ----------------------------------------------------
  Cycle       Energy    
 ----------------------------------------------------
    1     -16.5239706801     -1.65E+01
 Long-range K will be added via erf
 Coulomb attenuation parameter = 0.2 bohr**(-1)
 A restricted hybrid HF-DFT SCF calculation will be
 performed using Relaxed Constraint Minimization + Pulay DIIS
 Exchange:     0.2220 Hartree-Fock + 1.0000 wB97X-D + LR-HF
 Correlation:  1.0000 wB97X-D
 Using Euler-Maclaurin-Lebedev (75,302) quadrature formula
 Dispersion:   Grimme D
 SCF converges when DIIS error is below 1.0E-05
 Basis2 calculation detected. Using small basis as guess for larger.
 SCFMinFind is unable to tell whether the solution found is close.
 Resetting ReadMinima to 0 and attempting to follow guess.
 SCFMinFind following SCF Guess.
 using 3 threads for integral computing
 -------------------------------------------------------
 OpenMP Integral computing Module                
 Release: version 1.0, May 2013, Q-Chem Inc. Pittsburgh 
 -------------------------------------------------------
 using 3 threads for integral computing
 -------------------------------------------------------
 OpenMP Integral computing Module                
 Release: version 1.0, May 2013, Q-Chem Inc. Pittsburgh 
 -------------------------------------------------------
 ---------------------------------------
  Cycle       Energy         DIIS Error
 ---------------------------------------
    1    -119.1114127798      4.21E-03
    2    -119.1334143320      5.79E-04 Done RCA. Switching to DIIS
    3    -119.1342463687      3.94E-04
    4    -119.1350993085      4.62E-05
    5    -119.1351140429      1.24E-05
    6    -119.1351149907      4.18E-06 Convergence criterion met
 ---------------------------------------
 SCF time:  CPU 96.36 s  wall 32.61 s
 SCF   energy in the final basis set = -119.13511499
 Total energy in the final basis set = -119.13511499
 
 --------------------------------------------------------------
 
                    Orbital Energies (a.u.)
 --------------------------------------------------------------
 
 Alpha MOs
 -- Occupied --
-10.2764 -10.2689 -10.2689  -0.8740  -0.7866  -0.6737  -0.5394  -0.5130
 -0.4936  -0.4715  -0.4265  -0.4028  -0.4014
 -- Virtual --
  0.0660   0.0868   0.0939   0.0992   0.1171   0.1289   0.1325   0.1507
  0.1528   0.1742   0.1829   0.1982   0.2338   0.2356   0.2438   0.2569
  0.2699   0.2856   0.2906   0.3078   0.3262   0.3618   0.4607   0.4640
  0.4825   0.5031   0.5210   0.5306   0.5415   0.5736   0.5773   0.5936
  0.6007   0.6063   0.6369   0.6472   0.6474   0.6629   0.6985   0.7209
  0.7338   0.7741   0.8141   0.8422   0.8584   0.8685   0.9169   0.9643
  0.9744   1.0231   1.0433   1.1315   1.1506   1.1540   1.1632   1.2016
  1.2340   1.2612   1.2695   1.2777   1.2860   1.2887   1.3158   1.3204
  1.3735   1.3761   1.3791   1.4551   1.4597   1.4748   1.4760   1.4794
  1.5120   1.5670   1.6023   1.6410   1.6588   1.6602   1.6803   1.6864
  1.7798   2.3867   2.4737   2.4841   2.4869   2.5237   2.5536   2.5849
  2.6364   2.6829   2.7771   2.8275   2.8517   2.8968   2.9304   2.9384
  2.9522   2.9821   3.0010   3.0030   3.0500   3.0855   3.0923   3.1075
  3.1375   3.1386   3.1516   3.1780   3.1905   3.1924   3.2126   3.2823
  3.3027   3.3232   3.3272   3.3376   3.3567   3.3709   3.3718   3.4100
  3.4566   3.4700   3.5022   3.5619   3.5630   3.6020   3.6026   3.6206
  3.6347   3.6419   3.6576   3.7319   3.7324   3.7757   3.8130   3.8767
  3.8871   3.8892   3.9056   3.9507   3.9684   3.9813   3.9983   4.0423
  4.0902   4.1239   4.1281   4.1518   4.1571   4.1708   4.1714   4.1781
  4.2243   4.2876   4.2955   4.3425   4.3714   4.4217   4.4428   4.4663
  4.4839   4.4858   4.5714   4.5868   4.7787   4.7955   4.8461   4.8645
  4.9119   4.9292   4.9808   4.9809   5.0012   5.0482   5.0571   5.0943
  5.1354   5.1464   5.2303   5.2514   5.2980   5.3110   5.3132   5.3285
  5.3507   5.3856   5.4369   5.4617   5.5857   5.5891   5.6316   5.8138
  5.9251   6.3723   6.3739   6.3940   6.3988   6.4662  25.2104  25.4080
 25.4378
 --------------------------------------------------------------
 
 -----------------------------------------------------------------
                    Cartesian Multipole Moments
 -----------------------------------------------------------------
    Charge (ESU x 10^10)
                 0.0000
    Dipole Moment (Debye)
         X       0.0000      Y      -0.0012      Z      -0.1496
       Tot       0.1496
    Quadrupole Moments (Debye-Ang)
        XX     -21.9734     XY      -0.0000     YY     -21.4367
        XZ       0.0000     YZ      -0.0125     ZZ     -21.7663
    Octopole Moments (Debye-Ang^2)
       XXX       0.0000    XXY       0.0142    XYY       0.0000
       YYY      -0.0343    XXZ      -2.0565    XYZ       0.0000
       YYZ      -0.1705    XZZ       0.0000    YZZ       0.0007
       ZZZ      -3.0223
    Hexadecapole Moments (Debye-Ang^3)
      XXXX    -242.4918   XXXY      -0.0000   XXYY     -46.9087
      XYYY       0.0000   YYYY     -44.0920   XXXZ       0.0000
      XXYZ      -0.0109   XYYZ      -0.0000   YYYZ       0.0116
      XXZZ     -47.9651   XYZZ       0.0000   YYZZ     -15.8689
      XZZZ      -0.0000   YZZZ      -0.0060   ZZZZ     -62.5776
 -----------------------------------------------------------------
Archival summary:
1\1\cn0821\SP\ProcedureUnspecified\BasisUnspecified\38\r0852400\SunApr1205:34:032020SunApr1205:34:032020\0\\#,ProcedureUnspecified,BasisUnspecified,\\0,1\C\H,1,1.094\H,1,1.09427,2,103.496\C,1,1.53943,2,105.249,3,-109.913,0\H,4,1.0911,1,113.917,2,171.824,0\H,4,1.09128,1,113.978,2,-63.4867,0\H,4,1.09234,1,105.533,2,54.03,0\C,1,1.53943,2,105.249,3,109.913,0\H,8,1.0911,1,113.917,2,-171.823,0\H,8,1.09128,1,113.978,2,63.4867,0\H,8,1.09234,1,105.533,2,-54.0301,0\\\@

 Total job time:  48.27s(wall), 134.49s(cpu) 
 Sun Apr 12 05:34:03 2020

        *************************************************************
        *                                                           *
        *  Thank you very much for using Q-Chem.  Have a nice day.  *
        *                                                           *
        *************************************************************


