                  Welcome to Q-Chem
     A Quantum Leap Into The Future Of Chemistry


 Q-Chem 5.2 (devel), Q-Chem, Inc., Pleasanton, CA (2019)

 Yihan Shao,  Zhengting Gan,  E. Epifanovsky,  A. T. B. Gilbert,  M. Wormit,  
 J. Kussmann,  A. W. Lange,  A. Behn,  Jia Deng,  Xintian Feng,  D. Ghosh,  
 M. Goldey,  P. R. Horn,  L. D. Jacobson,  I. Kaliman,  T. Kus,  A. Landau,  
 Jie Liu,  E. I. Proynov,  R. M. Richard,  R. P. Steele,  E. J. Sundstrom,  
 H. L. Woodcock III,  P. M. Zimmerman,  D. Zuev,  B. Alam,  B. Albrecht,  
 E. Alguire,  S. A. Baeppler,  D. Barton,  Z. Benda,  Y. A. Bernard,  
 E. J. Berquist,  K. B. Bravaya,  H. Burton,  K. Carter-Fenk,  D. Casanova,  
 Chun-Min Chang,  Yunqing Chen,  A. Chien,  K. D. Closser,  M. P. Coons,  
 S. Coriani,  S. Dasgupta,  A. L. Dempwolff,  M. Diedenhofen,  Hainam Do,  
 R. G. Edgar,  Po-Tung Fang,  S. Faraji,  S. Fatehi,  Qingguo Feng,  
 J. Fosso-Tande,  J. Gayvert,  Qinghui Ge,  A. Ghysels,  G. Gidofalvi,  
 J. Gomes,  J. Gonthier,  A. Gunina,  D. Hait,  M. W. D. Hanson-Heine,  
 P. H. P. Harbach,  A. W. Hauser,  M. F. Herbst,  J. E. Herr,  
 E. G. Hohenstein,  Z. C. Holden,  Kerwin Hui,  B. C. Huynh,  T.-C. Jagau,  
 Hyunjun Ji,  B. Kaduk,  K. Khistyaev,  Jaehoon Kim,  P. Klunzinger,  K. Koh,  
 D. Kosenkov,  L. Koulias,  T. Kowalczyk,  C. M. Krauter,  A. Kunitsa,  
 Ka Un Lao,  A. Laurent,  K. V. Lawler,  Joonho Lee,  D. Lefrancois,  
 S. Lehtola,  D. S. Levine,  Yi-Pei Li,  You-Sheng Lin,  Fenglai Liu,  
 Kuan-Yu Liu,  E. Livshits,  M. Loipersberger,  A. Luenser,  P. Manohar,  
 E. Mansoor,  S. F. Manzer,  Shan-Ping Mao,  Yuezhi Mao,  N. Mardirossian,  
 A. V. Marenich,  T. Markovich,  L. A. Martinez-Martinez,  S. A. Maurer,  
 N. J. Mayhall,  S. C. McKenzie,  J.-M. Mewes,  P. Morgante,  A. F. Morrison,  
 J. W. Mullinax,  K. Nanda,  T. S. Nguyen-Beck,  R. Olivares-Amaya,  
 J. A. Parkhill,  S. K. Paul,  Zheng Pei,  T. M. Perrine,  F. Plasser,  
 P. Pokhilko,  S. Prager,  A. Prociuk,  E. Ramos,  B. Rana,  D. R. Rehn,  
 F. Rob,  M. Scheurer,  M. Schneider,  N. Sergueev,  S. M. Sharada,  
 S. Sharma,  D. W. Small,  T. Stauch,  C. J. Stein,  T. Stein,  Yu-Chuan Su,  
 S. P. Veccham,  A. J. W. Thom,  A. Tkatchenko,  T. Tsuchimochi,  
 N. M. Tubman,  L. Vogt,  M. L. Vidal,  O. Vydrov,  M. A. Watson,  J. Wenzel,  
 M. de Wergifosse,  T. A. Wesolowski,  A. White,  J. Witte,  A. Yamada,  
 Jun Yang,  K. Yao,  S. Yeganeh,  S. R. Yost,  Zhi-Qiang You,  A. Zech,  
 Igor Ying Zhang,  Xing Zhang,  Yan Zhao,  Ying Zhu,  B. R. Brooks,  
 G. K. L. Chan,  C. J. Cramer,  M. S. Gordon,  W. J. Hehre,  A. Klamt,  
 M. W. Schmidt,  C. D. Sherrill,  D. G. Truhlar,  A. Aspuru-Guzik,  R. Baer,  
 A. T. Bell,  N. A. Besley,  Jeng-Da Chai,  A. E. DePrince, III,  
 R. A. DiStasio Jr.,  A. Dreuw,  B. D. Dunietz,  T. R. Furlani,  
 Chao-Ping Hsu,  Yousung Jung,  Jing Kong,  D. S. Lambrecht,  WanZhen Liang,  
 C. Ochsenfeld,  V. A. Rassolov,  L. V. Slipchenko,  J. E. Subotnik,  
 T. Van Voorhis,  J. M. Herbert,  A. I. Krylov,  P. M. W. Gill,  M. Head-Gordon

 Contributors to earlier versions of Q-Chem not listed above: 
 R. D. Adamson,  B. Austin,  J. Baker,  G. J. O. Beran,  K. Brandhorst,  
 S. T. Brown,  E. F. C. Byrd,  A. K. Chakraborty,  C.-L. Cheng,  
 Siu Hung Chien,  D. M. Chipman,  D. L. Crittenden,  H. Dachsel,  
 R. J. Doerksen,  A. D. Dutoi,  L. Fusti-Molnar,  W. A. Goddard III,  
 A. Golubeva-Zadorozhnaya,  S. R. Gwaltney,  G. Hawkins,  A. Heyden,  
 S. Hirata,  G. Kedziora,  F. J. Keil,  C. Kelley,  Jihan Kim,  R. A. King,  
 R. Z. Khaliullin,  P. P. Korambath,  W. Kurlancheek,  A. M. Lee,  M. S. Lee,  
 S. V. Levchenko,  Ching Yeh Lin,  D. Liotard,  R. C. Lochan,  I. Lotan,  
 P. E. Maslen,  N. Nair,  D. P. O'Neill,  D. Neuhauser,  E. Neuscamman,  
 C. M. Oana,  R. Olson,  B. Peters,  R. Peverati,  P. A. Pieniazek,  
 Y. M. Rhee,  J. Ritchie,  M. A. Rohrdanz,  E. Rosta,  N. J. Russ,  
 H. F. Schaefer III,  N. E. Schultz,  N. Shenvi,  A. C. Simmonett,  A. Sodt,  
 D. Stuck,  K. S. Thanthiriwatte,  V. Vanovschi,  Tao Wang,  A. Warshel,  
 C. F. Williams,  Q. Wu,  X. Xu,  W. Zhang

 Please cite Q-Chem as follows:
 Y. Shao et al., Mol. Phys. 113, 184-215 (2015)
 DOI: 10.1080/00268976.2014.952696

 Q-Chem 5.2.2 for Intel X86 EM64T Linux

 Parts of Q-Chem use Armadillo 9.800.1 (Horizon Scraper).
 http://arma.sourceforge.net/

 Q-Chem begins on Sun Apr 12 07:03:35 2020  

Host: cn0821
0

     Scratch files written to /tmp/ypli/6721342.srvc1/qchem183888//
Warning:  Did not find "$end" marker in "$molecule" section

Checking the input file for inconsistencies... 	...done.

--------------------------------------------------------------
User input:
--------------------------------------------------------------
$rem
   JOBTYPE  sp
   EXCHANGE   omegaB97X-D
   BASIS   6-311+G(2df,2pd)
   max_scf_cycles   250
   geom_opt_max_cycles   1500
   basis2 6-31G*
   scf_algorithm rca_diis
   SYM_IGNORE  TRUE
   print_input   true
   geom_opt_dmax   80
   pop_mulliken false
   XC_GRID 000075000302
$end

$molecule
0 1
C       1.3823689323     0.0030790163     0.2898661020
C       0.0131889742     0.0004514612     -0.5724828634
H       1.1475374688     -0.9130134433     0.8257607443
H       1.1343822372     0.9137159516     0.8284216467
H       2.1109036408     -0.0067363224     -0.5134825656
C       -1.1591781645     -0.0012979472     0.2462874127
H       0.1869465379     -0.8618094040     -1.2206119203
H       0.1924531916     0.8614191055     -1.2208313726
H       -1.4163190239     -0.8104721086     0.9405208019
H       -2.1612598302     0.0073498335     -0.1985103681
H       -1.4310240249     0.8073145234     0.9361074012
--------------------------------------------------------------
 ----------------------------------------------------------------
             Standard Nuclear Orientation (Angstroms)
    I     Atom           X                Y                Z
 ----------------------------------------------------------------
    1      C       1.3823689323     0.0030790163     0.2898661020
    2      C       0.0131889742     0.0004514612    -0.5724828634
    3      H       1.1475374688    -0.9130134433     0.8257607443
    4      H       1.1343822372     0.9137159516     0.8284216467
    5      H       2.1109036408    -0.0067363224    -0.5134825656
    6      C      -1.1591781645    -0.0012979472     0.2462874127
    7      H       0.1869465379    -0.8618094040    -1.2206119203
    8      H       0.1924531916     0.8614191055    -1.2208313726
    9      H      -1.4163190239    -0.8104721086     0.9405208019
   10      H      -2.1612598302     0.0073498335    -0.1985103681
   11      H      -1.4310240249     0.8073145234     0.9361074012
 ----------------------------------------------------------------
 Nuclear Repulsion Energy =          83.21509763 hartrees
 There are       13 alpha and       13 beta electrons
 Requested basis set is 6-311+G(2df,2pd)
 There are 72 shells and 214 basis functions

 Total QAlloc Memory Limit   2000 MB
 Mega-Array Size       188 MB
 MEM_STATIC part       192 MB

                       Distance Matrix (Angstroms)
             C (  1)   C (  2)   H (  3)   H (  4)   H (  5)   C (  6)
   C (  2)  1.618118
   H (  3)  1.086993  2.018972
   H (  4)  1.086646  2.013370  1.826779
   H (  5)  1.084541  2.098557  1.882282  1.897771
   C (  6)  2.541924  1.429976  2.547146  2.537036  3.357189
   H (  7)  2.111542  1.092592  2.261194  2.872049  2.220989  2.168946
   H (  8)  2.105909  1.092592  2.872166  2.255971  2.221371  2.173390
   H (  9)  2.986281  2.233891  2.568471  3.080823  3.898899  1.096743
   H ( 10)  3.577127  2.206384  3.583900  3.568942  4.283782  1.096398
   H ( 11)  2.996598  2.238889  3.101723  2.569869  3.912703  1.097090
             H (  7)   H (  8)   H (  9)   H ( 10)
   H (  8)  1.723237
   H (  9)  2.691392  3.170932
   H ( 10)  2.704478  2.704541  1.587817
   H ( 11)  3.171000  2.700183  1.617859  1.568613
 
 A cutoff of  1.0D-09 yielded   2540 shell pairs
 There are     22610 function pairs (     27801 Cartesian)
 Smallest overlap matrix eigenvalue = 7.77E-05

 Scale SEOQF with 1.000000e-01/1.000000e-01/1.000000e-01

 Standard Electronic Orientation quadrupole field applied
 Nucleus-field energy     =     0.0000000006 hartrees
 Requested basis set is 6-31G(d)
 There are 28 shells and 58 basis functions
 A cutoff of  1.0D-09 yielded    402 shell pairs
 There are      1773 function pairs (      1968 Cartesian)
 Smallest overlap matrix eigenvalue = 6.73E-03
 Guess from superposition of atomic densities
 Warning:  Energy on first SCF cycle will be non-variational
 SAD guess density has 26.000000 electrons
 Long-range K will be added via erf
 Coulomb attenuation parameter = 0.2 bohr**(-1)
 A restricted hybrid HF-DFT SCF calculation will be
 performed using Relaxed Constraint Minimization + Pulay DIIS
 Exchange:     0.2220 Hartree-Fock + 1.0000 wB97X-D + LR-HF
 Correlation:  1.0000 wB97X-D
 Using Euler-Maclaurin-Lebedev (75,302) quadrature formula
 Dispersion:   Grimme D
 SCF converges when DIIS error is below 1.0E-04
 using 3 threads for integral computing
 -------------------------------------------------------
 OpenMP Integral computing Module                
 Release: version 1.0, May 2013, Q-Chem Inc. Pittsburgh 
 -------------------------------------------------------
 using 3 threads for integral computing
 -------------------------------------------------------
 OpenMP Integral computing Module                
 Release: version 1.0, May 2013, Q-Chem Inc. Pittsburgh 
 -------------------------------------------------------
 ---------------------------------------
  Cycle       Energy         DIIS Error
 ---------------------------------------
    1    -119.6857440997      1.02E-01
    2    -119.0084154026      9.28E-03
    3    -119.0308209743      2.53E-03
    4    -119.0459291234      1.78E-03
    5    -119.0466866777      2.49E-04 Done RCA. Switching to DIIS
    6    -119.0472826253      2.00E-04
    7    -119.0472999318      6.47E-06 Convergence criterion met
 ---------------------------------------
 SCF time:  CPU 32.80 s  wall 11.38 s
 SCF   energy in the small basis set = -119.04729993
 Total energy in the small basis set = -119.04729993
 ----------------------------------------------------
  Cycle       Energy    
 ----------------------------------------------------
    1     -16.5441403880     -1.65E+01
 Long-range K will be added via erf
 Coulomb attenuation parameter = 0.2 bohr**(-1)
 A restricted hybrid HF-DFT SCF calculation will be
 performed using Relaxed Constraint Minimization + Pulay DIIS
 Exchange:     0.2220 Hartree-Fock + 1.0000 wB97X-D + LR-HF
 Correlation:  1.0000 wB97X-D
 Using Euler-Maclaurin-Lebedev (75,302) quadrature formula
 Dispersion:   Grimme D
 SCF converges when DIIS error is below 1.0E-05
 Basis2 calculation detected. Using small basis as guess for larger.
 SCFMinFind is unable to tell whether the solution found is close.
 Resetting ReadMinima to 0 and attempting to follow guess.
 SCFMinFind following SCF Guess.
 using 3 threads for integral computing
 -------------------------------------------------------
 OpenMP Integral computing Module                
 Release: version 1.0, May 2013, Q-Chem Inc. Pittsburgh 
 -------------------------------------------------------
 using 3 threads for integral computing
 -------------------------------------------------------
 OpenMP Integral computing Module                
 Release: version 1.0, May 2013, Q-Chem Inc. Pittsburgh 
 -------------------------------------------------------
 ---------------------------------------
  Cycle       Energy         DIIS Error
 ---------------------------------------
    1    -119.0694851468      4.21E-03
    2    -119.0913875522      6.36E-04 Done RCA. Switching to DIIS
    3    -119.0922567323      4.60E-04
    4    -119.0934139088      5.41E-05
    5    -119.0934324828      1.91E-05
    6    -119.0934346604      5.48E-06 Convergence criterion met
 ---------------------------------------
 SCF time:  CPU 100.58 s  wall 34.01 s
 SCF   energy in the final basis set = -119.09343466
 Total energy in the final basis set = -119.09343466
 
 --------------------------------------------------------------
 
                    Orbital Energies (a.u.)
 --------------------------------------------------------------
 
 Alpha MOs
 -- Occupied --
-10.2763 -10.2683 -10.2662  -0.8910  -0.7859  -0.6809  -0.5510  -0.5507
 -0.4724  -0.4609  -0.4560  -0.4010  -0.3660
 -- Virtual --
  0.0661   0.0806   0.0946   0.0979   0.1220   0.1307   0.1316   0.1378
  0.1443   0.1691   0.1711   0.1947   0.2155   0.2331   0.2364   0.2496
  0.2705   0.2961   0.2997   0.3065   0.3314   0.3723   0.4623   0.4639
  0.4685   0.5106   0.5178   0.5227   0.5448   0.5689   0.5697   0.6020
  0.6091   0.6229   0.6397   0.6559   0.6585   0.6747   0.7072   0.7144
  0.7265   0.7614   0.7697   0.8343   0.8517   0.9246   0.9366   0.9597
  1.0082   1.0311   1.0445   1.0770   1.1292   1.1916   1.2087   1.2144
  1.2570   1.2620   1.2770   1.2812   1.3144   1.3226   1.3657   1.3813
  1.3856   1.3923   1.4078   1.4088   1.4528   1.4711   1.4839   1.4894
  1.5247   1.5305   1.5403   1.5857   1.6160   1.6544   1.7014   1.7669
  1.7793   2.4067   2.4279   2.5251   2.5431   2.5767   2.5969   2.5989
  2.6835   2.7257   2.7818   2.7855   2.8192   2.8672   2.8799   2.9094
  2.9206   2.9472   2.9640   2.9888   3.0003   3.0076   3.0634   3.1176
  3.1350   3.1663   3.1687   3.2060   3.2138   3.2691   3.2786   3.2963
  3.3030   3.3301   3.3413   3.3838   3.4066   3.4162   3.4521   3.4531
  3.4802   3.4962   3.5228   3.5308   3.5515   3.5627   3.5806   3.5871
  3.5949   3.6061   3.6436   3.6528   3.7645   3.7753   3.8165   3.8453
  3.8849   3.9037   3.9310   3.9342   3.9836   4.0029   4.0092   4.0298
  4.0326   4.1421   4.1617   4.1710   4.1990   4.2118   4.2455   4.2564
  4.2964   4.3242   4.3425   4.3775   4.3939   4.4213   4.4382   4.4942
  4.5078   4.5294   4.5902   4.6206   4.6781   4.6883   4.8502   4.8552
  4.9053   4.9081   4.9332   4.9892   5.0157   5.0359   5.0590   5.0849
  5.1129   5.1338   5.1470   5.1901   5.2502   5.3560   5.3930   5.4039
  5.5246   5.5871   5.6373   5.7077   5.7492   5.7907   5.8828   6.0455
  6.0778   6.3012   6.3497   6.4520   6.4545   6.4863  25.2010  25.4139
 25.4807
 --------------------------------------------------------------
 
 -----------------------------------------------------------------
                    Cartesian Multipole Moments
 -----------------------------------------------------------------
    Charge (ESU x 10^10)
                 0.0000
    Dipole Moment (Debye)
         X      -0.3563      Y       0.0010      Z      -0.1896
       Tot       0.4036
    Quadrupole Moments (Debye-Ang)
        XX     -22.3234     XY      -0.0568     YY     -21.5963
        XZ      -2.0362     YZ      -0.0029     ZZ     -22.1694
    Octopole Moments (Debye-Ang^2)
       XXX      -8.2927    XXY       0.0117    XYY      -0.8230
       YYY      -0.0448    XXZ      -1.9126    XYZ       0.0138
       YYZ       0.1138    XZZ      -1.2696    YZZ      -0.0273
       ZZZ      -1.3441
    Hexadecapole Moments (Debye-Ang^3)
      XXXX    -204.6515   XXXY      -0.3888   XXYY     -42.8980
      XYYY      -0.0351   YYYY     -44.0500   XXXZ      -6.8886
      XXYZ       0.0064   XYYZ      -0.1101   YYYZ      -0.0196
      XXZZ     -45.2509   XYZZ       0.0106   YYZZ     -17.5385
      XZZZ      -0.9981   YZZZ      -0.0229   ZZZZ     -72.6764
 -----------------------------------------------------------------
Archival summary:
1\1\cn0821\SP\ProcedureUnspecified\BasisUnspecified\38\r0852400\SunApr1207:04:252020SunApr1207:04:252020\0\\#,ProcedureUnspecified,BasisUnspecified,\\0,1\C\H,1,1.09259\H,1,1.09259,2,104.11\C,1,1.42998,2,118.375,3,-133.274,0\H,4,1.0964,1,121.133,2,62.9318,0\H,4,1.09674,1,123.749,2,-178.937,0\H,4,1.09709,1,124.213,2,-53.3574,0\C,1,1.61812,2,100.145,3,103.681,0\H,8,1.08454,1,99.9988,2,-53.7506,0\H,8,1.08665,1,94.151,2,69.6403,0\H,8,1.08699,1,94.5063,2,-175.48,0\\\@

 Total job time:  49.68s(wall), 138.61s(cpu) 
 Sun Apr 12 07:04:25 2020

        *************************************************************
        *                                                           *
        *  Thank you very much for using Q-Chem.  Have a nice day.  *
        *                                                           *
        *************************************************************


