                  Welcome to Q-Chem
     A Quantum Leap Into The Future Of Chemistry


 Q-Chem 5.2 (devel), Q-Chem, Inc., Pleasanton, CA (2019)

 Yihan Shao,  Zhengting Gan,  E. Epifanovsky,  A. T. B. Gilbert,  M. Wormit,  
 J. Kussmann,  A. W. Lange,  A. Behn,  Jia Deng,  Xintian Feng,  D. Ghosh,  
 M. Goldey,  P. R. Horn,  L. D. Jacobson,  I. Kaliman,  T. Kus,  A. Landau,  
 Jie Liu,  E. I. Proynov,  R. M. Richard,  R. P. Steele,  E. J. Sundstrom,  
 H. L. Woodcock III,  P. M. Zimmerman,  D. Zuev,  B. Alam,  B. Albrecht,  
 E. Alguire,  S. A. Baeppler,  D. Barton,  Z. Benda,  Y. A. Bernard,  
 E. J. Berquist,  K. B. Bravaya,  H. Burton,  K. Carter-Fenk,  D. Casanova,  
 Chun-Min Chang,  Yunqing Chen,  A. Chien,  K. D. Closser,  M. P. Coons,  
 S. Coriani,  S. Dasgupta,  A. L. Dempwolff,  M. Diedenhofen,  Hainam Do,  
 R. G. Edgar,  Po-Tung Fang,  S. Faraji,  S. Fatehi,  Qingguo Feng,  
 J. Fosso-Tande,  J. Gayvert,  Qinghui Ge,  A. Ghysels,  G. Gidofalvi,  
 J. Gomes,  J. Gonthier,  A. Gunina,  D. Hait,  M. W. D. Hanson-Heine,  
 P. H. P. Harbach,  A. W. Hauser,  M. F. Herbst,  J. E. Herr,  
 E. G. Hohenstein,  Z. C. Holden,  Kerwin Hui,  B. C. Huynh,  T.-C. Jagau,  
 Hyunjun Ji,  B. Kaduk,  K. Khistyaev,  Jaehoon Kim,  P. Klunzinger,  K. Koh,  
 D. Kosenkov,  L. Koulias,  T. Kowalczyk,  C. M. Krauter,  A. Kunitsa,  
 Ka Un Lao,  A. Laurent,  K. V. Lawler,  Joonho Lee,  D. Lefrancois,  
 S. Lehtola,  D. S. Levine,  Yi-Pei Li,  You-Sheng Lin,  Fenglai Liu,  
 Kuan-Yu Liu,  E. Livshits,  M. Loipersberger,  A. Luenser,  P. Manohar,  
 E. Mansoor,  S. F. Manzer,  Shan-Ping Mao,  Yuezhi Mao,  N. Mardirossian,  
 A. V. Marenich,  T. Markovich,  L. A. Martinez-Martinez,  S. A. Maurer,  
 N. J. Mayhall,  S. C. McKenzie,  J.-M. Mewes,  P. Morgante,  A. F. Morrison,  
 J. W. Mullinax,  K. Nanda,  T. S. Nguyen-Beck,  R. Olivares-Amaya,  
 J. A. Parkhill,  S. K. Paul,  Zheng Pei,  T. M. Perrine,  F. Plasser,  
 P. Pokhilko,  S. Prager,  A. Prociuk,  E. Ramos,  B. Rana,  D. R. Rehn,  
 F. Rob,  M. Scheurer,  M. Schneider,  N. Sergueev,  S. M. Sharada,  
 S. Sharma,  D. W. Small,  T. Stauch,  C. J. Stein,  T. Stein,  Yu-Chuan Su,  
 S. P. Veccham,  A. J. W. Thom,  A. Tkatchenko,  T. Tsuchimochi,  
 N. M. Tubman,  L. Vogt,  M. L. Vidal,  O. Vydrov,  M. A. Watson,  J. Wenzel,  
 M. de Wergifosse,  T. A. Wesolowski,  A. White,  J. Witte,  A. Yamada,  
 Jun Yang,  K. Yao,  S. Yeganeh,  S. R. Yost,  Zhi-Qiang You,  A. Zech,  
 Igor Ying Zhang,  Xing Zhang,  Yan Zhao,  Ying Zhu,  B. R. Brooks,  
 G. K. L. Chan,  C. J. Cramer,  M. S. Gordon,  W. J. Hehre,  A. Klamt,  
 M. W. Schmidt,  C. D. Sherrill,  D. G. Truhlar,  A. Aspuru-Guzik,  R. Baer,  
 A. T. Bell,  N. A. Besley,  Jeng-Da Chai,  A. E. DePrince, III,  
 R. A. DiStasio Jr.,  A. Dreuw,  B. D. Dunietz,  T. R. Furlani,  
 Chao-Ping Hsu,  Yousung Jung,  Jing Kong,  D. S. Lambrecht,  WanZhen Liang,  
 C. Ochsenfeld,  V. A. Rassolov,  L. V. Slipchenko,  J. E. Subotnik,  
 T. Van Voorhis,  J. M. Herbert,  A. I. Krylov,  P. M. W. Gill,  M. Head-Gordon

 Contributors to earlier versions of Q-Chem not listed above: 
 R. D. Adamson,  B. Austin,  J. Baker,  G. J. O. Beran,  K. Brandhorst,  
 S. T. Brown,  E. F. C. Byrd,  A. K. Chakraborty,  C.-L. Cheng,  
 Siu Hung Chien,  D. M. Chipman,  D. L. Crittenden,  H. Dachsel,  
 R. J. Doerksen,  A. D. Dutoi,  L. Fusti-Molnar,  W. A. Goddard III,  
 A. Golubeva-Zadorozhnaya,  S. R. Gwaltney,  G. Hawkins,  A. Heyden,  
 S. Hirata,  G. Kedziora,  F. J. Keil,  C. Kelley,  Jihan Kim,  R. A. King,  
 R. Z. Khaliullin,  P. P. Korambath,  W. Kurlancheek,  A. M. Lee,  M. S. Lee,  
 S. V. Levchenko,  Ching Yeh Lin,  D. Liotard,  R. C. Lochan,  I. Lotan,  
 P. E. Maslen,  N. Nair,  D. P. O'Neill,  D. Neuhauser,  E. Neuscamman,  
 C. M. Oana,  R. Olson,  B. Peters,  R. Peverati,  P. A. Pieniazek,  
 Y. M. Rhee,  J. Ritchie,  M. A. Rohrdanz,  E. Rosta,  N. J. Russ,  
 H. F. Schaefer III,  N. E. Schultz,  N. Shenvi,  A. C. Simmonett,  A. Sodt,  
 D. Stuck,  K. S. Thanthiriwatte,  V. Vanovschi,  Tao Wang,  A. Warshel,  
 C. F. Williams,  Q. Wu,  X. Xu,  W. Zhang

 Please cite Q-Chem as follows:
 Y. Shao et al., Mol. Phys. 113, 184-215 (2015)
 DOI: 10.1080/00268976.2014.952696

 Q-Chem 5.2.2 for Intel X86 EM64T Linux

 Parts of Q-Chem use Armadillo 9.800.1 (Horizon Scraper).
 http://arma.sourceforge.net/

 Q-Chem begins on Sun Apr 12 07:25:27 2020  

Host: cn0821
0

     Scratch files written to /tmp/ypli/6721342.srvc1/qchem187057//
Warning:  Did not find "$end" marker in "$molecule" section

Checking the input file for inconsistencies... 	...done.

--------------------------------------------------------------
User input:
--------------------------------------------------------------
$rem
   JOBTYPE  sp
   EXCHANGE   omegaB97X-D
   BASIS   6-311+G(2df,2pd)
   max_scf_cycles   250
   geom_opt_max_cycles   1500
   basis2 6-31G*
   scf_algorithm rca_diis
   SYM_IGNORE  TRUE
   print_input   true
   geom_opt_dmax   80
   pop_mulliken false
   XC_GRID 000075000302
$end

$molecule
0 1
C       1.2565083724     -0.0165521802     0.2413763361
C       0.0000002488     -0.0195586322     -0.6477021596
H       1.2543183903     -0.9312562743     0.8322488882
H       1.3625165024     0.9133246703     0.8041401392
H       2.1833115831     0.0606221538     -0.3347736691
C       -1.2565078849     -0.0165538832     0.2413766480
H       0.0000011934     -1.0244603145     -1.0579824810
H       -0.0000013756     0.9917352030     -1.0392523474
H       -1.2543099609     -0.9312575985     0.8322489966
H       -2.1833116226     0.0606325929     -0.3347711673
H       -1.3625255072     0.9133249290     0.8041358351
--------------------------------------------------------------
 ----------------------------------------------------------------
             Standard Nuclear Orientation (Angstroms)
    I     Atom           X                Y                Z
 ----------------------------------------------------------------
    1      C       1.2565083724    -0.0165521802     0.2413763361
    2      C       0.0000002488    -0.0195586322    -0.6477021596
    3      H       1.2543183903    -0.9312562743     0.8322488882
    4      H       1.3625165024     0.9133246703     0.8041401392
    5      H       2.1833115831     0.0606221538    -0.3347736691
    6      C      -1.2565078849    -0.0165538832     0.2413766480
    7      H       0.0000011934    -1.0244603145    -1.0579824810
    8      H      -0.0000013756     0.9917352030    -1.0392523474
    9      H      -1.2543099609    -0.9312575985     0.8322489966
   10      H      -2.1833116226     0.0606325929    -0.3347711673
   11      H      -1.3625255072     0.9133249290     0.8041358351
 ----------------------------------------------------------------
 Nuclear Repulsion Energy =          82.85973599 hartrees
 There are       13 alpha and       13 beta electrons
 Requested basis set is 6-311+G(2df,2pd)
 There are 72 shells and 214 basis functions

 Total QAlloc Memory Limit   2000 MB
 Mega-Array Size       188 MB
 MEM_STATIC part       192 MB

                       Distance Matrix (Angstroms)
             C (  1)   C (  2)   H (  3)   H (  4)   H (  5)   C (  6)
   C (  2)  1.539247
   H (  3)  1.088953  2.143540
   H (  4)  1.092068  2.198765  1.847965
   H (  5)  1.094015  2.207080  1.791310  1.642538
   C (  6)  2.513016  1.539247  2.736797  2.835607  3.488590
   H (  7)  2.069546  1.085430  2.270457  3.013131  2.543085  2.069547
   H (  8)  2.058026  1.084448  2.962048  2.293621  2.475907  2.058025
   H (  9)  2.736791  2.143536  2.508628  3.201727  3.763377  1.088953
   H ( 10)  3.488591  2.207081  3.763387  3.820615  4.366623  1.094015
   H ( 11)  2.835614  2.198768  3.201740  2.725042  3.820625  1.092068
             H (  7)   H (  8)   H (  9)   H ( 10)
   H (  8)  2.016283
   H (  9)  2.270453  2.962045
   H ( 10)  2.543092  2.475902  1.791320
   H ( 11)  3.013134  2.293622  1.847968  1.642523
 
 A cutoff of  1.0D-09 yielded   2540 shell pairs
 There are     22602 function pairs (     27783 Cartesian)
 Smallest overlap matrix eigenvalue = 8.44E-05

 Scale SEOQF with 1.000000e-01/1.000000e-01/1.000000e-01

 Standard Electronic Orientation quadrupole field applied
 Nucleus-field energy     =     0.0000000008 hartrees
 Requested basis set is 6-31G(d)
 There are 28 shells and 58 basis functions
 A cutoff of  1.0D-09 yielded    402 shell pairs
 There are      1773 function pairs (      1968 Cartesian)
 Smallest overlap matrix eigenvalue = 6.41E-03
 Guess from superposition of atomic densities
 Warning:  Energy on first SCF cycle will be non-variational
 SAD guess density has 26.000000 electrons
 Long-range K will be added via erf
 Coulomb attenuation parameter = 0.2 bohr**(-1)
 A restricted hybrid HF-DFT SCF calculation will be
 performed using Relaxed Constraint Minimization + Pulay DIIS
 Exchange:     0.2220 Hartree-Fock + 1.0000 wB97X-D + LR-HF
 Correlation:  1.0000 wB97X-D
 Using Euler-Maclaurin-Lebedev (75,302) quadrature formula
 Dispersion:   Grimme D
 SCF converges when DIIS error is below 1.0E-04
 using 3 threads for integral computing
 -------------------------------------------------------
 OpenMP Integral computing Module                
 Release: version 1.0, May 2013, Q-Chem Inc. Pittsburgh 
 -------------------------------------------------------
 using 3 threads for integral computing
 -------------------------------------------------------
 OpenMP Integral computing Module                
 Release: version 1.0, May 2013, Q-Chem Inc. Pittsburgh 
 -------------------------------------------------------
 ---------------------------------------
  Cycle       Energy         DIIS Error
 ---------------------------------------
    1    -119.6189131869      1.00E-01
    2    -119.0333227134      9.27E-03
    3    -119.0559103476      2.57E-03
    4    -119.0705592784      1.76E-03
    5    -119.0713287080      2.99E-04 Done RCA. Switching to DIIS
    6    -119.0718794549      2.17E-04
    7    -119.0718999969      7.48E-06 Convergence criterion met
 ---------------------------------------
 SCF time:  CPU 32.72 s  wall 11.34 s
 SCF   energy in the small basis set = -119.07190000
 Total energy in the small basis set = -119.07190000
 ----------------------------------------------------
  Cycle       Energy    
 ----------------------------------------------------
    1     -16.5347120955     -1.65E+01
 Long-range K will be added via erf
 Coulomb attenuation parameter = 0.2 bohr**(-1)
 A restricted hybrid HF-DFT SCF calculation will be
 performed using Relaxed Constraint Minimization + Pulay DIIS
 Exchange:     0.2220 Hartree-Fock + 1.0000 wB97X-D + LR-HF
 Correlation:  1.0000 wB97X-D
 Using Euler-Maclaurin-Lebedev (75,302) quadrature formula
 Dispersion:   Grimme D
 SCF converges when DIIS error is below 1.0E-05
 Basis2 calculation detected. Using small basis as guess for larger.
 SCFMinFind is unable to tell whether the solution found is close.
 Resetting ReadMinima to 0 and attempting to follow guess.
 SCFMinFind following SCF Guess.
 using 3 threads for integral computing
 -------------------------------------------------------
 OpenMP Integral computing Module                
 Release: version 1.0, May 2013, Q-Chem Inc. Pittsburgh 
 -------------------------------------------------------
 using 3 threads for integral computing
 -------------------------------------------------------
 OpenMP Integral computing Module                
 Release: version 1.0, May 2013, Q-Chem Inc. Pittsburgh 
 -------------------------------------------------------
 ---------------------------------------
  Cycle       Energy         DIIS Error
 ---------------------------------------
    1    -119.0919773809      4.22E-03
    2    -119.1140452664      6.40E-04 Done RCA. Switching to DIIS
    3    -119.1149852345      4.53E-04
    4    -119.1161148779      4.33E-05
    5    -119.1161294624      8.68E-06 Convergence criterion met
 ---------------------------------------
 SCF time:  CPU 85.38 s  wall 28.90 s
 SCF   energy in the final basis set = -119.11612946
 Total energy in the final basis set = -119.11612946
 
 --------------------------------------------------------------
 
                    Orbital Energies (a.u.)
 --------------------------------------------------------------
 
 Alpha MOs
 -- Occupied --
-10.2772 -10.2641 -10.2641  -0.8850  -0.7763  -0.6706  -0.5803  -0.5100
 -0.4817  -0.4646  -0.4304  -0.4109  -0.3830
 -- Virtual --
  0.0707   0.0851   0.0915   0.0942   0.1251   0.1290   0.1303   0.1340
  0.1365   0.1731   0.1758   0.1882   0.2303   0.2413   0.2487   0.2691
  0.2759   0.2859   0.2953   0.3137   0.3321   0.3381   0.4559   0.4680
  0.4718   0.4911   0.5136   0.5184   0.5535   0.5612   0.5854   0.6109
  0.6193   0.6238   0.6282   0.6479   0.6614   0.6793   0.7089   0.7131
  0.7246   0.7769   0.8299   0.8470   0.8701   0.8782   0.8918   0.9256
  1.0059   1.0287   1.0531   1.1292   1.1532   1.1700   1.1855   1.1988
  1.2028   1.2373   1.2556   1.2811   1.3125   1.3296   1.3327   1.3640
  1.3809   1.3895   1.3965   1.4511   1.4632   1.4693   1.4887   1.5039
  1.5214   1.5563   1.5772   1.6231   1.6412   1.6413   1.6734   1.7087
  1.7544   2.3739   2.4547   2.5071   2.5298   2.5892   2.6148   2.6432
  2.6503   2.6840   2.7747   2.8425   2.8777   2.8842   2.8998   2.9292
  2.9327   2.9503   2.9605   3.0241   3.0384   3.0637   3.0947   3.1027
  3.1281   3.1334   3.1627   3.1950   3.2232   3.2475   3.2645   3.2750
  3.2920   3.3173   3.3329   3.3473   3.3871   3.4047   3.4393   3.4552
  3.4846   3.5028   3.5160   3.5383   3.5566   3.5761   3.5903   3.6179
  3.6397   3.6557   3.6873   3.7220   3.7506   3.7537   3.8145   3.8491
  3.8664   3.9250   3.9385   3.9577   3.9595   3.9651   4.0089   4.0195
  4.0535   4.0670   4.1120   4.1256   4.1500   4.1711   4.1833   4.1985
  4.2046   4.2680   4.3096   4.3283   4.3932   4.4256   4.4432   4.4541
  4.4658   4.5677   4.6396   4.6512   4.6862   4.7475   4.8336   4.8556
  4.8851   4.9052   4.9185   4.9317   4.9678   5.0246   5.0659   5.1117
  5.1208   5.1970   5.2024   5.2378   5.2989   5.3442   5.3656   5.4198
  5.4389   5.5053   5.5516   5.5966   5.6137   5.6377   5.8025   5.8126
  6.1430   6.3231   6.3234   6.4379   6.4409   6.6173  25.1736  25.4368
 25.4534
 --------------------------------------------------------------
 
 -----------------------------------------------------------------
                    Cartesian Multipole Moments
 -----------------------------------------------------------------
    Charge (ESU x 10^10)
                -0.0000
    Dipole Moment (Debye)
         X      -0.0000      Y       0.0896      Z      -0.0280
       Tot       0.0938
    Quadrupole Moments (Debye-Ang)
        XX     -22.3102     XY      -0.0000     YY     -20.2983
        XZ      -0.0000     YZ      -0.1496     ZZ     -23.3402
    Octopole Moments (Debye-Ang^2)
       XXX      -0.0000    XXY       1.8384    XYY      -0.0000
       YYY       0.6140    XXZ      -0.7948    XYZ       0.0000
       YYZ       0.5283    XZZ       0.0000    YZZ       0.0244
       ZZZ       1.8675
    Hexadecapole Moments (Debye-Ang^3)
      XXXX    -202.1783   XXXY      -0.0002   XXYY     -41.9018
      XYYY       0.0000   YYYY     -44.8186   XXXZ      -0.0000
      XXYZ       0.0161   XYYZ       0.0000   YYYZ      -0.0671
      XXZZ     -45.9619   XYZZ       0.0000   YYZZ     -17.4429
      XZZZ       0.0000   YZZZ      -0.1259   ZZZZ     -72.4318
 -----------------------------------------------------------------
Archival summary:
1\1\cn0821\SP\ProcedureUnspecified\BasisUnspecified\38\r0852400\SunApr1207:26:122020SunApr1207:26:122020\0\\#,ProcedureUnspecified,BasisUnspecified,\\0,1\C\H,1,1.08445\H,1,1.08543,2,136.626\C,1,1.53925,2,101.931,3,123.453,0\H,4,1.08895,1,108.067,2,169.684,0\H,4,1.09207,1,112.244,2,40.7304,0\H,4,1.09402,1,112.799,2,-68.1262,0\C,1,1.53925,2,101.931,3,-123.453,0\H,8,1.08895,1,108.067,2,-169.684,0\H,8,1.09207,1,112.244,2,-40.7299,0\H,8,1.09402,1,112.799,2,68.1254,0\\\@

 Total job time:  44.62s(wall), 123.41s(cpu) 
 Sun Apr 12 07:26:12 2020

        *************************************************************
        *                                                           *
        *  Thank you very much for using Q-Chem.  Have a nice day.  *
        *                                                           *
        *************************************************************


