                  Welcome to Q-Chem
     A Quantum Leap Into The Future Of Chemistry


 Q-Chem 5.2 (devel), Q-Chem, Inc., Pleasanton, CA (2019)

 Yihan Shao,  Zhengting Gan,  E. Epifanovsky,  A. T. B. Gilbert,  M. Wormit,  
 J. Kussmann,  A. W. Lange,  A. Behn,  Jia Deng,  Xintian Feng,  D. Ghosh,  
 M. Goldey,  P. R. Horn,  L. D. Jacobson,  I. Kaliman,  T. Kus,  A. Landau,  
 Jie Liu,  E. I. Proynov,  R. M. Richard,  R. P. Steele,  E. J. Sundstrom,  
 H. L. Woodcock III,  P. M. Zimmerman,  D. Zuev,  B. Alam,  B. Albrecht,  
 E. Alguire,  S. A. Baeppler,  D. Barton,  Z. Benda,  Y. A. Bernard,  
 E. J. Berquist,  K. B. Bravaya,  H. Burton,  K. Carter-Fenk,  D. Casanova,  
 Chun-Min Chang,  Yunqing Chen,  A. Chien,  K. D. Closser,  M. P. Coons,  
 S. Coriani,  S. Dasgupta,  A. L. Dempwolff,  M. Diedenhofen,  Hainam Do,  
 R. G. Edgar,  Po-Tung Fang,  S. Faraji,  S. Fatehi,  Qingguo Feng,  
 J. Fosso-Tande,  J. Gayvert,  Qinghui Ge,  A. Ghysels,  G. Gidofalvi,  
 J. Gomes,  J. Gonthier,  A. Gunina,  D. Hait,  M. W. D. Hanson-Heine,  
 P. H. P. Harbach,  A. W. Hauser,  M. F. Herbst,  J. E. Herr,  
 E. G. Hohenstein,  Z. C. Holden,  Kerwin Hui,  B. C. Huynh,  T.-C. Jagau,  
 Hyunjun Ji,  B. Kaduk,  K. Khistyaev,  Jaehoon Kim,  P. Klunzinger,  K. Koh,  
 D. Kosenkov,  L. Koulias,  T. Kowalczyk,  C. M. Krauter,  A. Kunitsa,  
 Ka Un Lao,  A. Laurent,  K. V. Lawler,  Joonho Lee,  D. Lefrancois,  
 S. Lehtola,  D. S. Levine,  Yi-Pei Li,  You-Sheng Lin,  Fenglai Liu,  
 Kuan-Yu Liu,  E. Livshits,  M. Loipersberger,  A. Luenser,  P. Manohar,  
 E. Mansoor,  S. F. Manzer,  Shan-Ping Mao,  Yuezhi Mao,  N. Mardirossian,  
 A. V. Marenich,  T. Markovich,  L. A. Martinez-Martinez,  S. A. Maurer,  
 N. J. Mayhall,  S. C. McKenzie,  J.-M. Mewes,  P. Morgante,  A. F. Morrison,  
 J. W. Mullinax,  K. Nanda,  T. S. Nguyen-Beck,  R. Olivares-Amaya,  
 J. A. Parkhill,  S. K. Paul,  Zheng Pei,  T. M. Perrine,  F. Plasser,  
 P. Pokhilko,  S. Prager,  A. Prociuk,  E. Ramos,  B. Rana,  D. R. Rehn,  
 F. Rob,  M. Scheurer,  M. Schneider,  N. Sergueev,  S. M. Sharada,  
 S. Sharma,  D. W. Small,  T. Stauch,  C. J. Stein,  T. Stein,  Yu-Chuan Su,  
 S. P. Veccham,  A. J. W. Thom,  A. Tkatchenko,  T. Tsuchimochi,  
 N. M. Tubman,  L. Vogt,  M. L. Vidal,  O. Vydrov,  M. A. Watson,  J. Wenzel,  
 M. de Wergifosse,  T. A. Wesolowski,  A. White,  J. Witte,  A. Yamada,  
 Jun Yang,  K. Yao,  S. Yeganeh,  S. R. Yost,  Zhi-Qiang You,  A. Zech,  
 Igor Ying Zhang,  Xing Zhang,  Yan Zhao,  Ying Zhu,  B. R. Brooks,  
 G. K. L. Chan,  C. J. Cramer,  M. S. Gordon,  W. J. Hehre,  A. Klamt,  
 M. W. Schmidt,  C. D. Sherrill,  D. G. Truhlar,  A. Aspuru-Guzik,  R. Baer,  
 A. T. Bell,  N. A. Besley,  Jeng-Da Chai,  A. E. DePrince, III,  
 R. A. DiStasio Jr.,  A. Dreuw,  B. D. Dunietz,  T. R. Furlani,  
 Chao-Ping Hsu,  Yousung Jung,  Jing Kong,  D. S. Lambrecht,  WanZhen Liang,  
 C. Ochsenfeld,  V. A. Rassolov,  L. V. Slipchenko,  J. E. Subotnik,  
 T. Van Voorhis,  J. M. Herbert,  A. I. Krylov,  P. M. W. Gill,  M. Head-Gordon

 Contributors to earlier versions of Q-Chem not listed above: 
 R. D. Adamson,  B. Austin,  J. Baker,  G. J. O. Beran,  K. Brandhorst,  
 S. T. Brown,  E. F. C. Byrd,  A. K. Chakraborty,  C.-L. Cheng,  
 Siu Hung Chien,  D. M. Chipman,  D. L. Crittenden,  H. Dachsel,  
 R. J. Doerksen,  A. D. Dutoi,  L. Fusti-Molnar,  W. A. Goddard III,  
 A. Golubeva-Zadorozhnaya,  S. R. Gwaltney,  G. Hawkins,  A. Heyden,  
 S. Hirata,  G. Kedziora,  F. J. Keil,  C. Kelley,  Jihan Kim,  R. A. King,  
 R. Z. Khaliullin,  P. P. Korambath,  W. Kurlancheek,  A. M. Lee,  M. S. Lee,  
 S. V. Levchenko,  Ching Yeh Lin,  D. Liotard,  R. C. Lochan,  I. Lotan,  
 P. E. Maslen,  N. Nair,  D. P. O'Neill,  D. Neuhauser,  E. Neuscamman,  
 C. M. Oana,  R. Olson,  B. Peters,  R. Peverati,  P. A. Pieniazek,  
 Y. M. Rhee,  J. Ritchie,  M. A. Rohrdanz,  E. Rosta,  N. J. Russ,  
 H. F. Schaefer III,  N. E. Schultz,  N. Shenvi,  A. C. Simmonett,  A. Sodt,  
 D. Stuck,  K. S. Thanthiriwatte,  V. Vanovschi,  Tao Wang,  A. Warshel,  
 C. F. Williams,  Q. Wu,  X. Xu,  W. Zhang

 Please cite Q-Chem as follows:
 Y. Shao et al., Mol. Phys. 113, 184-215 (2015)
 DOI: 10.1080/00268976.2014.952696

 Q-Chem 5.2.2 for Intel X86 EM64T Linux

 Parts of Q-Chem use Armadillo 9.800.1 (Horizon Scraper).
 http://arma.sourceforge.net/

 Q-Chem begins on Sun Apr 12 05:59:45 2020  

Host: cn0821
0

     Scratch files written to /tmp/ypli/6721342.srvc1/qchem173786//
Warning:  Did not find "$end" marker in "$molecule" section

Checking the input file for inconsistencies... 	...done.

--------------------------------------------------------------
User input:
--------------------------------------------------------------
$rem
   JOBTYPE  sp
   EXCHANGE   omegaB97X-D
   BASIS   6-311+G(2df,2pd)
   max_scf_cycles   250
   geom_opt_max_cycles   1500
   basis2 6-31G*
   scf_algorithm rca_diis
   SYM_IGNORE  TRUE
   print_input   true
   geom_opt_dmax   80
   pop_mulliken false
   XC_GRID 000075000302
$end

$molecule
0 1
C       1.2524372522     -0.0556643868     0.2809719502
C       -0.0071198990     0.0002371742     -0.5849006444
H       1.4049246286     -0.8671048972     0.9923833181
H       1.2381241753     0.8914832086     0.8267695991
H       2.1216410576     0.0107796244     -0.3752354928
C       -1.2792553984     0.0547949444     0.2426566313
H       -0.1235672719     -0.8648783559     -1.2419940624
H       0.1659965380     0.8604554015     -1.2359087909
H       -1.2065554601     -0.8801664300     0.8057962374
H       -2.1960815891     -0.0088275031     -0.3430815623
H       -1.3705440937     0.8588918859     0.9735878358
--------------------------------------------------------------
 ----------------------------------------------------------------
             Standard Nuclear Orientation (Angstroms)
    I     Atom           X                Y                Z
 ----------------------------------------------------------------
    1      C       1.2524372522    -0.0556643868     0.2809719502
    2      C      -0.0071198990     0.0002371742    -0.5849006444
    3      H       1.4049246286    -0.8671048972     0.9923833181
    4      H       1.2381241753     0.8914832086     0.8267695991
    5      H       2.1216410576     0.0107796244    -0.3752354928
    6      C      -1.2792553984     0.0547949444     0.2426566313
    7      H      -0.1235672719    -0.8648783559    -1.2419940624
    8      H       0.1659965380     0.8604554015    -1.2359087909
    9      H      -1.2065554601    -0.8801664300     0.8057962374
   10      H      -2.1960815891    -0.0088275031    -0.3430815623
   11      H      -1.3705440937     0.8588918859     0.9735878358
 ----------------------------------------------------------------
 Nuclear Repulsion Energy =          82.81618178 hartrees
 There are       13 alpha and       13 beta electrons
 Requested basis set is 6-311+G(2df,2pd)
 There are 72 shells and 214 basis functions

 Total QAlloc Memory Limit   2000 MB
 Mega-Array Size       188 MB
 MEM_STATIC part       192 MB

                       Distance Matrix (Angstroms)
             C (  1)   C (  2)   H (  3)   H (  4)   H (  5)   C (  6)
   C (  2)  1.529492
   H (  3)  1.089860  2.287789
   H (  4)  1.093247  2.082730  1.774227
   H (  5)  1.091118  2.139087  1.776160  1.732356
   C (  6)  2.534391  1.518603  2.935441  2.716328  3.456852
   H (  7)  2.206273  1.092592  2.707164  3.036246  2.561056  2.094183
   H (  8)  2.078595  1.092592  3.079723  2.324879  2.299403  2.219008
   H (  9)  2.646108  2.036613  2.618170  3.019212  3.642185  1.093876
   H ( 10)  3.504842  2.202297  3.935397  3.738032  4.317887  1.089820
   H ( 11)  2.862894  2.241673  3.268432  2.613000  3.838486  1.090489
             H (  7)   H (  8)   H (  9)   H ( 10)
   H (  8)  1.749474
   H (  9)  2.316580  3.013673
   H ( 10)  2.415819  2.670619  1.748804
   H ( 11)  3.071667  2.691252  1.754813  1.779907
 
 A cutoff of  1.0D-09 yielded   2532 shell pairs
 There are     22541 function pairs (     27718 Cartesian)
 Smallest overlap matrix eigenvalue = 8.91E-05

 Scale SEOQF with 1.000000e-01/1.000000e-01/1.000000e-01

 Standard Electronic Orientation quadrupole field applied
 Nucleus-field energy     =     0.0000000006 hartrees
 Requested basis set is 6-31G(d)
 There are 28 shells and 58 basis functions
 A cutoff of  1.0D-09 yielded    402 shell pairs
 There are      1773 function pairs (      1968 Cartesian)
 Smallest overlap matrix eigenvalue = 6.87E-03
 Guess from superposition of atomic densities
 Warning:  Energy on first SCF cycle will be non-variational
 SAD guess density has 26.000000 electrons
 Long-range K will be added via erf
 Coulomb attenuation parameter = 0.2 bohr**(-1)
 A restricted hybrid HF-DFT SCF calculation will be
 performed using Relaxed Constraint Minimization + Pulay DIIS
 Exchange:     0.2220 Hartree-Fock + 1.0000 wB97X-D + LR-HF
 Correlation:  1.0000 wB97X-D
 Using Euler-Maclaurin-Lebedev (75,302) quadrature formula
 Dispersion:   Grimme D
 SCF converges when DIIS error is below 1.0E-04
 using 3 threads for integral computing
 -------------------------------------------------------
 OpenMP Integral computing Module                
 Release: version 1.0, May 2013, Q-Chem Inc. Pittsburgh 
 -------------------------------------------------------
 using 3 threads for integral computing
 -------------------------------------------------------
 OpenMP Integral computing Module                
 Release: version 1.0, May 2013, Q-Chem Inc. Pittsburgh 
 -------------------------------------------------------
 ---------------------------------------
  Cycle       Energy         DIIS Error
 ---------------------------------------
    1    -119.6302263300      1.01E-01
    2    -119.0583869269      8.98E-03
    3    -119.0794416369      2.49E-03
    4    -119.0932191792      1.71E-03
    5    -119.0939350605      2.72E-04 Done RCA. Switching to DIIS
    6    -119.0944587343      2.01E-04
    7    -119.0944762071      4.65E-06 Convergence criterion met
 ---------------------------------------
 SCF time:  CPU 32.38 s  wall 11.15 s
 SCF   energy in the small basis set = -119.09447621
 Total energy in the small basis set = -119.09447621
 ----------------------------------------------------
  Cycle       Energy    
 ----------------------------------------------------
    1     -16.5401471323     -1.65E+01
 Long-range K will be added via erf
 Coulomb attenuation parameter = 0.2 bohr**(-1)
 A restricted hybrid HF-DFT SCF calculation will be
 performed using Relaxed Constraint Minimization + Pulay DIIS
 Exchange:     0.2220 Hartree-Fock + 1.0000 wB97X-D + LR-HF
 Correlation:  1.0000 wB97X-D
 Using Euler-Maclaurin-Lebedev (75,302) quadrature formula
 Dispersion:   Grimme D
 SCF converges when DIIS error is below 1.0E-05
 Basis2 calculation detected. Using small basis as guess for larger.
 SCFMinFind is unable to tell whether the solution found is close.
 Resetting ReadMinima to 0 and attempting to follow guess.
 SCFMinFind following SCF Guess.
 using 3 threads for integral computing
 -------------------------------------------------------
 OpenMP Integral computing Module                
 Release: version 1.0, May 2013, Q-Chem Inc. Pittsburgh 
 -------------------------------------------------------
 using 3 threads for integral computing
 -------------------------------------------------------
 OpenMP Integral computing Module                
 Release: version 1.0, May 2013, Q-Chem Inc. Pittsburgh 
 -------------------------------------------------------
 ---------------------------------------
  Cycle       Energy         DIIS Error
 ---------------------------------------
    1    -119.1138194844      4.21E-03
    2    -119.1358588599      5.99E-04 Done RCA. Switching to DIIS
    3    -119.1366979877      4.20E-04
    4    -119.1376643438      4.58E-05
    5    -119.1376792103      1.03E-05
    6    -119.1376799241      3.97E-06 Convergence criterion met
 ---------------------------------------
 SCF time:  CPU 98.67 s  wall 33.36 s
 SCF   energy in the final basis set = -119.13767992
 Total energy in the final basis set = -119.13767992
 
 --------------------------------------------------------------
 
                    Orbital Energies (a.u.)
 --------------------------------------------------------------
 
 Alpha MOs
 -- Occupied --
-10.2757 -10.2659 -10.2649  -0.8833  -0.7785  -0.6775  -0.5487  -0.5255
 -0.4814  -0.4652  -0.4184  -0.4141  -0.4058
 -- Virtual --
  0.0693   0.0858   0.0907   0.0984   0.1248   0.1297   0.1329   0.1416
  0.1425   0.1712   0.1724   0.1926   0.2321   0.2377   0.2466   0.2591
  0.2821   0.2889   0.3042   0.3157   0.3327   0.3487   0.4584   0.4694
  0.4714   0.5070   0.5105   0.5164   0.5474   0.5630   0.5850   0.5898
  0.6197   0.6233   0.6351   0.6580   0.6583   0.6648   0.7098   0.7218
  0.7233   0.7664   0.8114   0.8385   0.8641   0.8923   0.9062   0.9623
  0.9997   1.0556   1.0579   1.1298   1.1394   1.1562   1.1943   1.1971
  1.2305   1.2445   1.2669   1.2867   1.2884   1.3045   1.3370   1.3753
  1.3815   1.3858   1.4184   1.4417   1.4703   1.4809   1.4866   1.4922
  1.5275   1.5665   1.6020   1.6144   1.6354   1.6463   1.6854   1.6878
  1.7373   2.3744   2.4693   2.4787   2.5157   2.5614   2.5824   2.6098
  2.6433   2.7007   2.7785   2.8355   2.8617   2.8931   2.9159   2.9315
  2.9398   2.9713   2.9949   3.0183   3.0556   3.0670   3.0884   3.1018
  3.1256   3.1454   3.1766   3.1910   3.2198   3.2416   3.2954   3.3088
  3.3186   3.3211   3.3462   3.3673   3.3746   3.3912   3.4008   3.4108
  3.4165   3.4918   3.5340   3.5486   3.5719   3.5783   3.5820   3.6175
  3.6296   3.6498   3.6888   3.7074   3.7701   3.7928   3.8335   3.8591
  3.8941   3.9214   3.9409   3.9632   4.0092   4.0246   4.0520   4.0684
  4.0766   4.0960   4.1374   4.1445   4.1558   4.1764   4.2015   4.2183
  4.2334   4.2572   4.2955   4.3640   4.3675   4.4022   4.4128   4.4469
  4.4664   4.5736   4.6172   4.6288   4.6905   4.7896   4.8044   4.9008
  4.9292   4.9434   4.9670   4.9801   5.0061   5.0311   5.0720   5.0946
  5.1577   5.2080   5.2436   5.2696   5.3071   5.3315   5.3697   5.3740
  5.3822   5.4103   5.4735   5.4907   5.5265   5.6559   5.6602   5.7553
  6.0027   6.3912   6.3920   6.4038   6.4212   6.4800  25.1917  25.4426
 25.4540
 --------------------------------------------------------------
 
 -----------------------------------------------------------------
                    Cartesian Multipole Moments
 -----------------------------------------------------------------
    Charge (ESU x 10^10)
                -0.0000
    Dipole Moment (Debye)
         X       0.0246      Y      -0.0076      Z      -0.0767
       Tot       0.0809
    Quadrupole Moments (Debye-Ang)
        XX     -22.1207     XY       0.0612     YY     -21.4473
        XZ       0.0246     YZ       0.0058     ZZ     -21.8510
    Octopole Moments (Debye-Ang^2)
       XXX      -0.0814    XXY      -0.0106    XYY       0.3209
       YYY      -0.0016    XXZ      -1.4544    XYZ      -0.8670
       YYZ       0.4608    XZZ       0.3379    YZZ      -0.0326
       ZZZ      -0.4198
    Hexadecapole Moments (Debye-Ang^3)
      XXXX    -202.0515   XXXY       1.3568   XXYY     -42.1815
      XYYY       2.1840   YYYY     -44.1753   XXXZ      -0.2980
      XXYZ      -0.0725   XYYZ      -0.1192   YYYZ       0.0383
      XXZZ     -45.0044   XYZZ       0.1006   YYZZ     -17.1920
      XZZZ      -0.7203   YZZZ       0.0324   ZZZZ     -72.0092
 -----------------------------------------------------------------
Archival summary:
1\1\cn0821\SP\ProcedureUnspecified\BasisUnspecified\38\r0852400\SunApr1206:00:342020SunApr1206:00:342020\0\\#,ProcedureUnspecified,BasisUnspecified,\\0,1\C\H,1,1.09259\H,1,1.09259,2,106.376\C,1,1.5186,2,115.413,3,-116.59,0\H,4,1.08982,1,114.189,2,67.3858,0\H,4,1.09049,1,117.509,2,-62.8054,0\H,4,1.09388,1,101.196,2,-178.733,0\C,1,1.52949,2,103.627,3,119.966,0\H,8,1.08986,1,120.795,2,-175.574,0\H,8,1.09112,1,108.26,2,-48.9302,0\H,8,1.09325,1,103.897,2,62.2576,0\\\@

 Total job time:  48.90s(wall), 136.37s(cpu) 
 Sun Apr 12 06:00:34 2020

        *************************************************************
        *                                                           *
        *  Thank you very much for using Q-Chem.  Have a nice day.  *
        *                                                           *
        *************************************************************


