                  Welcome to Q-Chem
     A Quantum Leap Into The Future Of Chemistry


 Q-Chem 5.2 (devel), Q-Chem, Inc., Pleasanton, CA (2019)

 Yihan Shao,  Zhengting Gan,  E. Epifanovsky,  A. T. B. Gilbert,  M. Wormit,  
 J. Kussmann,  A. W. Lange,  A. Behn,  Jia Deng,  Xintian Feng,  D. Ghosh,  
 M. Goldey,  P. R. Horn,  L. D. Jacobson,  I. Kaliman,  T. Kus,  A. Landau,  
 Jie Liu,  E. I. Proynov,  R. M. Richard,  R. P. Steele,  E. J. Sundstrom,  
 H. L. Woodcock III,  P. M. Zimmerman,  D. Zuev,  B. Alam,  B. Albrecht,  
 E. Alguire,  S. A. Baeppler,  D. Barton,  Z. Benda,  Y. A. Bernard,  
 E. J. Berquist,  K. B. Bravaya,  H. Burton,  K. Carter-Fenk,  D. Casanova,  
 Chun-Min Chang,  Yunqing Chen,  A. Chien,  K. D. Closser,  M. P. Coons,  
 S. Coriani,  S. Dasgupta,  A. L. Dempwolff,  M. Diedenhofen,  Hainam Do,  
 R. G. Edgar,  Po-Tung Fang,  S. Faraji,  S. Fatehi,  Qingguo Feng,  
 J. Fosso-Tande,  J. Gayvert,  Qinghui Ge,  A. Ghysels,  G. Gidofalvi,  
 J. Gomes,  J. Gonthier,  A. Gunina,  D. Hait,  M. W. D. Hanson-Heine,  
 P. H. P. Harbach,  A. W. Hauser,  M. F. Herbst,  J. E. Herr,  
 E. G. Hohenstein,  Z. C. Holden,  Kerwin Hui,  B. C. Huynh,  T.-C. Jagau,  
 Hyunjun Ji,  B. Kaduk,  K. Khistyaev,  Jaehoon Kim,  P. Klunzinger,  K. Koh,  
 D. Kosenkov,  L. Koulias,  T. Kowalczyk,  C. M. Krauter,  A. Kunitsa,  
 Ka Un Lao,  A. Laurent,  K. V. Lawler,  Joonho Lee,  D. Lefrancois,  
 S. Lehtola,  D. S. Levine,  Yi-Pei Li,  You-Sheng Lin,  Fenglai Liu,  
 Kuan-Yu Liu,  E. Livshits,  M. Loipersberger,  A. Luenser,  P. Manohar,  
 E. Mansoor,  S. F. Manzer,  Shan-Ping Mao,  Yuezhi Mao,  N. Mardirossian,  
 A. V. Marenich,  T. Markovich,  L. A. Martinez-Martinez,  S. A. Maurer,  
 N. J. Mayhall,  S. C. McKenzie,  J.-M. Mewes,  P. Morgante,  A. F. Morrison,  
 J. W. Mullinax,  K. Nanda,  T. S. Nguyen-Beck,  R. Olivares-Amaya,  
 J. A. Parkhill,  S. K. Paul,  Zheng Pei,  T. M. Perrine,  F. Plasser,  
 P. Pokhilko,  S. Prager,  A. Prociuk,  E. Ramos,  B. Rana,  D. R. Rehn,  
 F. Rob,  M. Scheurer,  M. Schneider,  N. Sergueev,  S. M. Sharada,  
 S. Sharma,  D. W. Small,  T. Stauch,  C. J. Stein,  T. Stein,  Yu-Chuan Su,  
 S. P. Veccham,  A. J. W. Thom,  A. Tkatchenko,  T. Tsuchimochi,  
 N. M. Tubman,  L. Vogt,  M. L. Vidal,  O. Vydrov,  M. A. Watson,  J. Wenzel,  
 M. de Wergifosse,  T. A. Wesolowski,  A. White,  J. Witte,  A. Yamada,  
 Jun Yang,  K. Yao,  S. Yeganeh,  S. R. Yost,  Zhi-Qiang You,  A. Zech,  
 Igor Ying Zhang,  Xing Zhang,  Yan Zhao,  Ying Zhu,  B. R. Brooks,  
 G. K. L. Chan,  C. J. Cramer,  M. S. Gordon,  W. J. Hehre,  A. Klamt,  
 M. W. Schmidt,  C. D. Sherrill,  D. G. Truhlar,  A. Aspuru-Guzik,  R. Baer,  
 A. T. Bell,  N. A. Besley,  Jeng-Da Chai,  A. E. DePrince, III,  
 R. A. DiStasio Jr.,  A. Dreuw,  B. D. Dunietz,  T. R. Furlani,  
 Chao-Ping Hsu,  Yousung Jung,  Jing Kong,  D. S. Lambrecht,  WanZhen Liang,  
 C. Ochsenfeld,  V. A. Rassolov,  L. V. Slipchenko,  J. E. Subotnik,  
 T. Van Voorhis,  J. M. Herbert,  A. I. Krylov,  P. M. W. Gill,  M. Head-Gordon

 Contributors to earlier versions of Q-Chem not listed above: 
 R. D. Adamson,  B. Austin,  J. Baker,  G. J. O. Beran,  K. Brandhorst,  
 S. T. Brown,  E. F. C. Byrd,  A. K. Chakraborty,  C.-L. Cheng,  
 Siu Hung Chien,  D. M. Chipman,  D. L. Crittenden,  H. Dachsel,  
 R. J. Doerksen,  A. D. Dutoi,  L. Fusti-Molnar,  W. A. Goddard III,  
 A. Golubeva-Zadorozhnaya,  S. R. Gwaltney,  G. Hawkins,  A. Heyden,  
 S. Hirata,  G. Kedziora,  F. J. Keil,  C. Kelley,  Jihan Kim,  R. A. King,  
 R. Z. Khaliullin,  P. P. Korambath,  W. Kurlancheek,  A. M. Lee,  M. S. Lee,  
 S. V. Levchenko,  Ching Yeh Lin,  D. Liotard,  R. C. Lochan,  I. Lotan,  
 P. E. Maslen,  N. Nair,  D. P. O'Neill,  D. Neuhauser,  E. Neuscamman,  
 C. M. Oana,  R. Olson,  B. Peters,  R. Peverati,  P. A. Pieniazek,  
 Y. M. Rhee,  J. Ritchie,  M. A. Rohrdanz,  E. Rosta,  N. J. Russ,  
 H. F. Schaefer III,  N. E. Schultz,  N. Shenvi,  A. C. Simmonett,  A. Sodt,  
 D. Stuck,  K. S. Thanthiriwatte,  V. Vanovschi,  Tao Wang,  A. Warshel,  
 C. F. Williams,  Q. Wu,  X. Xu,  W. Zhang

 Please cite Q-Chem as follows:
 Y. Shao et al., Mol. Phys. 113, 184-215 (2015)
 DOI: 10.1080/00268976.2014.952696

 Q-Chem 5.2.2 for Intel X86 EM64T Linux

 Parts of Q-Chem use Armadillo 9.800.1 (Horizon Scraper).
 http://arma.sourceforge.net/

 Q-Chem begins on Sun Apr 12 07:06:02 2020  

Host: cn0821
0

     Scratch files written to /tmp/ypli/6721342.srvc1/qchem184294//
Warning:  Did not find "$end" marker in "$molecule" section

Checking the input file for inconsistencies... 	...done.

--------------------------------------------------------------
User input:
--------------------------------------------------------------
$rem
   JOBTYPE  sp
   EXCHANGE   omegaB97X-D
   BASIS   6-311+G(2df,2pd)
   max_scf_cycles   250
   geom_opt_max_cycles   1500
   basis2 6-31G*
   scf_algorithm rca_diis
   SYM_IGNORE  TRUE
   print_input   true
   geom_opt_dmax   80
   pop_mulliken false
   XC_GRID 000075000302
$end

$molecule
0 1
C       1.1860739681     -0.0011592252     0.2488069298
C       -0.0087635570     0.0002438082     -0.5788448461
H       1.3924056594     -0.8305420445     0.9341709937
H       1.4033760959     0.8284581699     0.9309051682
H       2.1661959520     0.0054416769     -0.2392064737
C       -1.3524463074     0.0021561185     0.2797963226
H       -0.1397240466     -0.8670394823     -1.2303245230
H       -0.1438522737     0.8667904665     -1.2304618043
H       -1.1907803169     -0.9103340764     0.8502615424
H       -2.1316640273     -0.0050642827     -0.4766509684
H       -1.1808212071     0.9110495370     0.8525926777
--------------------------------------------------------------
 ----------------------------------------------------------------
             Standard Nuclear Orientation (Angstroms)
    I     Atom           X                Y                Z
 ----------------------------------------------------------------
    1      C       1.1860739681    -0.0011592252     0.2488069298
    2      C      -0.0087635570     0.0002438082    -0.5788448461
    3      H       1.3924056594    -0.8305420445     0.9341709937
    4      H       1.4033760959     0.8284581699     0.9309051682
    5      H       2.1661959520     0.0054416769    -0.2392064737
    6      C      -1.3524463074     0.0021561185     0.2797963226
    7      H      -0.1397240466    -0.8670394823    -1.2303245230
    8      H      -0.1438522737     0.8667904665    -1.2304618043
    9      H      -1.1907803169    -0.9103340764     0.8502615424
   10      H      -2.1316640273    -0.0050642827    -0.4766509684
   11      H      -1.1808212071     0.9110495370     0.8525926777
 ----------------------------------------------------------------
 Nuclear Repulsion Energy =          82.99964854 hartrees
 There are       13 alpha and       13 beta electrons
 Requested basis set is 6-311+G(2df,2pd)
 There are 72 shells and 214 basis functions

 Total QAlloc Memory Limit   2000 MB
 Mega-Array Size       188 MB
 MEM_STATIC part       192 MB

                       Distance Matrix (Angstroms)
             C (  1)   C (  2)   H (  3)   H (  4)   H (  5)   C (  6)
   C (  2)  1.453494
   H (  3)  1.095524  2.223218
   H (  4)  1.095784  2.226976  1.659040
   H (  5)  1.094915  2.201325  1.635370  1.621238
   C (  6)  2.538712  1.594601  2.942075  2.949792  3.556715
   H (  7)  2.166868  1.092592  2.652130  3.150680  2.657218  2.122890
   H (  8)  2.170317  1.092592  3.150660  2.658363  2.657223  2.118767
   H (  9)  2.614915  2.066074  2.585780  3.124028  3.646214  1.088212
   H ( 10)  3.396129  2.125365  3.884701  3.895187  4.304427  1.086023
   H ( 11)  2.607465  2.062110  3.108262  2.586703  3.635199  1.087951
             H (  7)   H (  8)   H (  9)   H ( 10)
   H (  8)  1.733835
   H (  9)  2.331401  2.929785
   H ( 10)  2.297575  2.297772  1.861578
   H ( 11)  2.929851  2.327312  1.821412  1.873568
 
 A cutoff of  1.0D-09 yielded   2535 shell pairs
 There are     22569 function pairs (     27751 Cartesian)
 Smallest overlap matrix eigenvalue = 8.10E-05

 Scale SEOQF with 1.000000e-01/1.000000e-01/1.000000e-01

 Standard Electronic Orientation quadrupole field applied
 Nucleus-field energy     =     0.0000000006 hartrees
 Requested basis set is 6-31G(d)
 There are 28 shells and 58 basis functions
 A cutoff of  1.0D-09 yielded    402 shell pairs
 There are      1773 function pairs (      1968 Cartesian)
 Smallest overlap matrix eigenvalue = 6.77E-03
 Guess from superposition of atomic densities
 Warning:  Energy on first SCF cycle will be non-variational
 SAD guess density has 26.000000 electrons
 Long-range K will be added via erf
 Coulomb attenuation parameter = 0.2 bohr**(-1)
 A restricted hybrid HF-DFT SCF calculation will be
 performed using Relaxed Constraint Minimization + Pulay DIIS
 Exchange:     0.2220 Hartree-Fock + 1.0000 wB97X-D + LR-HF
 Correlation:  1.0000 wB97X-D
 Using Euler-Maclaurin-Lebedev (75,302) quadrature formula
 Dispersion:   Grimme D
 SCF converges when DIIS error is below 1.0E-04
 using 3 threads for integral computing
 -------------------------------------------------------
 OpenMP Integral computing Module                
 Release: version 1.0, May 2013, Q-Chem Inc. Pittsburgh 
 -------------------------------------------------------
 using 3 threads for integral computing
 -------------------------------------------------------
 OpenMP Integral computing Module                
 Release: version 1.0, May 2013, Q-Chem Inc. Pittsburgh 
 -------------------------------------------------------
 ---------------------------------------
  Cycle       Energy         DIIS Error
 ---------------------------------------
    1    -119.6552013172      1.01E-01
    2    -119.0342295899      9.16E-03
    3    -119.0560415015      2.50E-03
    4    -119.0705999728      1.74E-03
    5    -119.0713301838      2.57E-04 Done RCA. Switching to DIIS
    6    -119.0718869393      1.98E-04
    7    -119.0719039631      5.63E-06 Convergence criterion met
 ---------------------------------------
 SCF time:  CPU 33.09 s  wall 11.45 s
 SCF   energy in the small basis set = -119.07190396
 Total energy in the small basis set = -119.07190396
 ----------------------------------------------------
  Cycle       Energy    
 ----------------------------------------------------
    1     -16.5417886506     -1.65E+01
 Long-range K will be added via erf
 Coulomb attenuation parameter = 0.2 bohr**(-1)
 A restricted hybrid HF-DFT SCF calculation will be
 performed using Relaxed Constraint Minimization + Pulay DIIS
 Exchange:     0.2220 Hartree-Fock + 1.0000 wB97X-D + LR-HF
 Correlation:  1.0000 wB97X-D
 Using Euler-Maclaurin-Lebedev (75,302) quadrature formula
 Dispersion:   Grimme D
 SCF converges when DIIS error is below 1.0E-05
 Basis2 calculation detected. Using small basis as guess for larger.
 SCFMinFind is unable to tell whether the solution found is close.
 Resetting ReadMinima to 0 and attempting to follow guess.
 SCFMinFind following SCF Guess.
 using 3 threads for integral computing
 -------------------------------------------------------
 OpenMP Integral computing Module                
 Release: version 1.0, May 2013, Q-Chem Inc. Pittsburgh 
 -------------------------------------------------------
 using 3 threads for integral computing
 -------------------------------------------------------
 OpenMP Integral computing Module                
 Release: version 1.0, May 2013, Q-Chem Inc. Pittsburgh 
 -------------------------------------------------------
 ---------------------------------------
  Cycle       Energy         DIIS Error
 ---------------------------------------
    1    -119.0926712136      4.21E-03
    2    -119.1146504875      6.19E-04 Done RCA. Switching to DIIS
    3    -119.1155077526      4.42E-04
    4    -119.1165761191      5.01E-05
    5    -119.1165928317      1.55E-05
    6    -119.1165942822      5.18E-06 Convergence criterion met
 ---------------------------------------
 SCF time:  CPU 97.99 s  wall 33.14 s
 SCF   energy in the final basis set = -119.11659428
 Total energy in the final basis set = -119.11659428
 
 --------------------------------------------------------------
 
                    Orbital Energies (a.u.)
 --------------------------------------------------------------
 
 Alpha MOs
 -- Occupied --
-10.2750 -10.2676 -10.2651  -0.8865  -0.7819  -0.6793  -0.5486  -0.5408
 -0.4731  -0.4622  -0.4512  -0.4037  -0.3790
 -- Virtual --
  0.0675   0.0826   0.0934   0.0983   0.1234   0.1305   0.1323   0.1396
  0.1438   0.1697   0.1717   0.1934   0.2242   0.2330   0.2385   0.2632
  0.2756   0.2865   0.3019   0.3092   0.3326   0.3657   0.4616   0.4652
  0.4676   0.5096   0.5155   0.5217   0.5443   0.5665   0.5709   0.6070
  0.6079   0.6249   0.6377   0.6559   0.6580   0.6654   0.7109   0.7186
  0.7273   0.7655   0.7783   0.8428   0.8578   0.9105   0.9199   0.9563
  1.0095   1.0366   1.0518   1.0847   1.1389   1.1867   1.2067   1.2164
  1.2431   1.2454   1.2745   1.2766   1.2987   1.3259   1.3556   1.3823
  1.3827   1.3854   1.4054   1.4297   1.4513   1.4722   1.4796   1.4853
  1.5124   1.5458   1.5471   1.5945   1.6141   1.6551   1.6894   1.7641
  1.7676   2.3923   2.4331   2.5100   2.5529   2.5635   2.5750   2.5928
  2.6786   2.7111   2.7904   2.8027   2.8324   2.9026   2.9144   2.9167
  2.9236   2.9503   2.9777   2.9842   2.9952   3.0107   3.0854   3.1180
  3.1341   3.1675   3.1729   3.2028   3.2062   3.2778   3.2789   3.3062
  3.3159   3.3257   3.3431   3.3663   3.3783   3.4149   3.4368   3.4551
  3.4688   3.4983   3.5127   3.5372   3.5470   3.5541   3.5734   3.5773
  3.6000   3.6174   3.6291   3.6732   3.7686   3.7838   3.8255   3.8572
  3.8769   3.9080   3.9443   3.9668   3.9749   4.0116   4.0269   4.0680
  4.0743   4.1305   4.1504   4.1551   4.1676   4.1782   4.2274   4.2418
  4.2545   4.2930   4.3415   4.3746   4.3782   4.4196   4.4257   4.4731
  4.5004   4.5299   4.5677   4.6554   4.6671   4.7047   4.8170   4.8517
  4.9101   4.9278   4.9608   4.9896   5.0051   5.0318   5.0686   5.0835
  5.1252   5.1314   5.1806   5.2163   5.2908   5.3274   5.3656   5.4436
  5.4918   5.5667   5.5776   5.6168   5.6880   5.7314   5.7552   5.8908
  6.0234   6.3215   6.3409   6.4395   6.4507   6.4730  25.2008  25.4227
 25.4674
 --------------------------------------------------------------
 
 -----------------------------------------------------------------
                    Cartesian Multipole Moments
 -----------------------------------------------------------------
    Charge (ESU x 10^10)
                 0.0000
    Dipole Moment (Debye)
         X       0.2276      Y       0.0007      Z      -0.1387
       Tot       0.2665
    Quadrupole Moments (Debye-Ang)
        XX     -22.2390     XY       0.0420     YY     -21.4926
        XZ       1.5086     YZ      -0.0014     ZZ     -22.0294
    Octopole Moments (Debye-Ang^2)
       XXX       5.9742    XXY       0.0079    XYY       0.5665
       YYY      -0.0251    XXZ      -1.7553    XYZ      -0.0104
       YYZ       0.2854    XZZ       0.8840    YZZ      -0.0153
       ZZZ      -0.9230
    Hexadecapole Moments (Debye-Ang^3)
      XXXX    -203.4757   XXXY       0.2927   XXYY     -42.6028
      XYYY       0.0237   YYYY     -44.0889   XXXZ       5.1103
      XXYZ       0.0043   XYYZ       0.0441   YYYZ      -0.0108
      XXZZ     -45.2515   XYZZ      -0.0094   YYZZ     -17.3417
      XZZZ       0.6607   YZZZ      -0.0126   ZZZZ     -72.4790
 -----------------------------------------------------------------
Archival summary:
1\1\cn0821\SP\ProcedureUnspecified\BasisUnspecified\38\r0852400\SunApr1207:06:512020SunApr1207:06:512020\0\\#,ProcedureUnspecified,BasisUnspecified,\\0,1\C\H,1,1.09259\H,1,1.09259,2,105.018\C,1,1.45349,2,115.931,3,-129.742,0\H,4,1.09492,1,118.82,2,62.446,0\H,4,1.09552,1,120.783,2,-56.2586,0\H,4,1.09578,1,121.114,2,179.783,0\C,1,1.5946,2,102.769,3,106.865,0\H,8,1.08602,1,103.269,2,-54.0459,0\H,8,1.08795,1,98.7181,2,-176.782,0\H,8,1.08821,1,98.9798,2,67.4307,0\\\@

 Total job time:  48.73s(wall), 136.14s(cpu) 
 Sun Apr 12 07:06:51 2020

        *************************************************************
        *                                                           *
        *  Thank you very much for using Q-Chem.  Have a nice day.  *
        *                                                           *
        *************************************************************


