                  Welcome to Q-Chem
     A Quantum Leap Into The Future Of Chemistry


 Q-Chem 5.2 (devel), Q-Chem, Inc., Pleasanton, CA (2019)

 Yihan Shao,  Zhengting Gan,  E. Epifanovsky,  A. T. B. Gilbert,  M. Wormit,  
 J. Kussmann,  A. W. Lange,  A. Behn,  Jia Deng,  Xintian Feng,  D. Ghosh,  
 M. Goldey,  P. R. Horn,  L. D. Jacobson,  I. Kaliman,  T. Kus,  A. Landau,  
 Jie Liu,  E. I. Proynov,  R. M. Richard,  R. P. Steele,  E. J. Sundstrom,  
 H. L. Woodcock III,  P. M. Zimmerman,  D. Zuev,  B. Alam,  B. Albrecht,  
 E. Alguire,  S. A. Baeppler,  D. Barton,  Z. Benda,  Y. A. Bernard,  
 E. J. Berquist,  K. B. Bravaya,  H. Burton,  K. Carter-Fenk,  D. Casanova,  
 Chun-Min Chang,  Yunqing Chen,  A. Chien,  K. D. Closser,  M. P. Coons,  
 S. Coriani,  S. Dasgupta,  A. L. Dempwolff,  M. Diedenhofen,  Hainam Do,  
 R. G. Edgar,  Po-Tung Fang,  S. Faraji,  S. Fatehi,  Qingguo Feng,  
 J. Fosso-Tande,  J. Gayvert,  Qinghui Ge,  A. Ghysels,  G. Gidofalvi,  
 J. Gomes,  J. Gonthier,  A. Gunina,  D. Hait,  M. W. D. Hanson-Heine,  
 P. H. P. Harbach,  A. W. Hauser,  M. F. Herbst,  J. E. Herr,  
 E. G. Hohenstein,  Z. C. Holden,  Kerwin Hui,  B. C. Huynh,  T.-C. Jagau,  
 Hyunjun Ji,  B. Kaduk,  K. Khistyaev,  Jaehoon Kim,  P. Klunzinger,  K. Koh,  
 D. Kosenkov,  L. Koulias,  T. Kowalczyk,  C. M. Krauter,  A. Kunitsa,  
 Ka Un Lao,  A. Laurent,  K. V. Lawler,  Joonho Lee,  D. Lefrancois,  
 S. Lehtola,  D. S. Levine,  Yi-Pei Li,  You-Sheng Lin,  Fenglai Liu,  
 Kuan-Yu Liu,  E. Livshits,  M. Loipersberger,  A. Luenser,  P. Manohar,  
 E. Mansoor,  S. F. Manzer,  Shan-Ping Mao,  Yuezhi Mao,  N. Mardirossian,  
 A. V. Marenich,  T. Markovich,  L. A. Martinez-Martinez,  S. A. Maurer,  
 N. J. Mayhall,  S. C. McKenzie,  J.-M. Mewes,  P. Morgante,  A. F. Morrison,  
 J. W. Mullinax,  K. Nanda,  T. S. Nguyen-Beck,  R. Olivares-Amaya,  
 J. A. Parkhill,  S. K. Paul,  Zheng Pei,  T. M. Perrine,  F. Plasser,  
 P. Pokhilko,  S. Prager,  A. Prociuk,  E. Ramos,  B. Rana,  D. R. Rehn,  
 F. Rob,  M. Scheurer,  M. Schneider,  N. Sergueev,  S. M. Sharada,  
 S. Sharma,  D. W. Small,  T. Stauch,  C. J. Stein,  T. Stein,  Yu-Chuan Su,  
 S. P. Veccham,  A. J. W. Thom,  A. Tkatchenko,  T. Tsuchimochi,  
 N. M. Tubman,  L. Vogt,  M. L. Vidal,  O. Vydrov,  M. A. Watson,  J. Wenzel,  
 M. de Wergifosse,  T. A. Wesolowski,  A. White,  J. Witte,  A. Yamada,  
 Jun Yang,  K. Yao,  S. Yeganeh,  S. R. Yost,  Zhi-Qiang You,  A. Zech,  
 Igor Ying Zhang,  Xing Zhang,  Yan Zhao,  Ying Zhu,  B. R. Brooks,  
 G. K. L. Chan,  C. J. Cramer,  M. S. Gordon,  W. J. Hehre,  A. Klamt,  
 M. W. Schmidt,  C. D. Sherrill,  D. G. Truhlar,  A. Aspuru-Guzik,  R. Baer,  
 A. T. Bell,  N. A. Besley,  Jeng-Da Chai,  A. E. DePrince, III,  
 R. A. DiStasio Jr.,  A. Dreuw,  B. D. Dunietz,  T. R. Furlani,  
 Chao-Ping Hsu,  Yousung Jung,  Jing Kong,  D. S. Lambrecht,  WanZhen Liang,  
 C. Ochsenfeld,  V. A. Rassolov,  L. V. Slipchenko,  J. E. Subotnik,  
 T. Van Voorhis,  J. M. Herbert,  A. I. Krylov,  P. M. W. Gill,  M. Head-Gordon

 Contributors to earlier versions of Q-Chem not listed above: 
 R. D. Adamson,  B. Austin,  J. Baker,  G. J. O. Beran,  K. Brandhorst,  
 S. T. Brown,  E. F. C. Byrd,  A. K. Chakraborty,  C.-L. Cheng,  
 Siu Hung Chien,  D. M. Chipman,  D. L. Crittenden,  H. Dachsel,  
 R. J. Doerksen,  A. D. Dutoi,  L. Fusti-Molnar,  W. A. Goddard III,  
 A. Golubeva-Zadorozhnaya,  S. R. Gwaltney,  G. Hawkins,  A. Heyden,  
 S. Hirata,  G. Kedziora,  F. J. Keil,  C. Kelley,  Jihan Kim,  R. A. King,  
 R. Z. Khaliullin,  P. P. Korambath,  W. Kurlancheek,  A. M. Lee,  M. S. Lee,  
 S. V. Levchenko,  Ching Yeh Lin,  D. Liotard,  R. C. Lochan,  I. Lotan,  
 P. E. Maslen,  N. Nair,  D. P. O'Neill,  D. Neuhauser,  E. Neuscamman,  
 C. M. Oana,  R. Olson,  B. Peters,  R. Peverati,  P. A. Pieniazek,  
 Y. M. Rhee,  J. Ritchie,  M. A. Rohrdanz,  E. Rosta,  N. J. Russ,  
 H. F. Schaefer III,  N. E. Schultz,  N. Shenvi,  A. C. Simmonett,  A. Sodt,  
 D. Stuck,  K. S. Thanthiriwatte,  V. Vanovschi,  Tao Wang,  A. Warshel,  
 C. F. Williams,  Q. Wu,  X. Xu,  W. Zhang

 Please cite Q-Chem as follows:
 Y. Shao et al., Mol. Phys. 113, 184-215 (2015)
 DOI: 10.1080/00268976.2014.952696

 Q-Chem 5.2.2 for Intel X86 EM64T Linux

 Parts of Q-Chem use Armadillo 9.800.1 (Horizon Scraper).
 http://arma.sourceforge.net/

 Q-Chem begins on Sun Apr 12 06:45:14 2020  

Host: cn0821
0

     Scratch files written to /tmp/ypli/6721342.srvc1/qchem181127//
Warning:  Did not find "$end" marker in "$molecule" section

Checking the input file for inconsistencies... 	...done.

--------------------------------------------------------------
User input:
--------------------------------------------------------------
$rem
   JOBTYPE  sp
   EXCHANGE   omegaB97X-D
   BASIS   6-311+G(2df,2pd)
   max_scf_cycles   250
   geom_opt_max_cycles   1500
   basis2 6-31G*
   scf_algorithm rca_diis
   SYM_IGNORE  TRUE
   print_input   true
   geom_opt_dmax   80
   pop_mulliken false
   XC_GRID 000075000302
$end

$molecule
0 1
C       1.2644325805     -0.0820768118     0.2562463938
C       -0.0035214787     -0.0008149925     -0.5883941499
H       1.3239836738     -0.9108346462     0.9640009046
H       1.2832275309     0.8394729227     0.8430244934
H       2.1582366191     -0.0284823865     -0.3657762322
C       -1.2644859447     0.0811273299     0.2607070346
H       0.2569967974     -0.8441799814     -1.2323056279
H       -0.2468919191     0.8464292908     -1.2339205192
H       -1.2848096969     -0.8473282380     0.8356904899
H       -2.1632802089     0.0272990641     -0.3547975101
H       -1.3238880142     0.9193891150     0.9565697419
--------------------------------------------------------------
 ----------------------------------------------------------------
             Standard Nuclear Orientation (Angstroms)
    I     Atom           X                Y                Z
 ----------------------------------------------------------------
    1      C       1.2644325805    -0.0820768118     0.2562463938
    2      C      -0.0035214787    -0.0008149925    -0.5883941499
    3      H       1.3239836738    -0.9108346462     0.9640009046
    4      H       1.2832275309     0.8394729227     0.8430244934
    5      H       2.1582366191    -0.0284823865    -0.3657762322
    6      C      -1.2644859447     0.0811273299     0.2607070346
    7      H       0.2569967974    -0.8441799814    -1.2323056279
    8      H      -0.2468919191     0.8464292908    -1.2339205192
    9      H      -1.2848096969    -0.8473282380     0.8356904899
   10      H      -2.1632802089     0.0272990641    -0.3547975101
   11      H      -1.3238880142     0.9193891150     0.9565697419
 ----------------------------------------------------------------
 Nuclear Repulsion Energy =          82.85677930 hartrees
 There are       13 alpha and       13 beta electrons
 Requested basis set is 6-311+G(2df,2pd)
 There are 72 shells and 214 basis functions

 Total QAlloc Memory Limit   2000 MB
 Mega-Array Size       188 MB
 MEM_STATIC part       192 MB

                       Distance Matrix (Angstroms)
             C (  1)   C (  2)   H (  3)   H (  4)   H (  5)   C (  6)
   C (  2)  1.525690
   H (  3)  1.091468  2.236143
   H (  4)  1.092664  2.100182  1.754957
   H (  5)  1.090262  2.173367  1.800786  1.726322
   C (  6)  2.534183  1.522406  2.859858  2.721218  3.481311
   H (  7)  1.952310  1.092592  2.442676  2.862662  2.242978  2.323831
   H (  8)  2.316640  1.092592  3.222807  2.579731  2.702552  1.963440
   H (  9)  2.723968  2.094350  2.612719  3.072485  3.737459  1.092268
   H ( 10)  3.483468  2.172537  3.844520  3.738023  4.321891  1.090676
   H ( 11)  2.862305  2.230932  3.218851  2.610810  3.843469  1.091071
             H (  7)   H (  8)   H (  9)   H ( 10)
   H (  8)  1.764105
   H (  9)  2.579493  2.868689
   H ( 10)  2.717947  2.261941  1.718704
   H ( 11)  3.224988  2.442026  1.771279  1.794460
 
 A cutoff of  1.0D-09 yielded   2533 shell pairs
 There are     22519 function pairs (     27682 Cartesian)
 Smallest overlap matrix eigenvalue = 1.07E-04

 Scale SEOQF with 1.000000e-01/1.000000e-01/1.000000e-01

 Standard Electronic Orientation quadrupole field applied
 Nucleus-field energy     =     0.0000000006 hartrees
 Requested basis set is 6-31G(d)
 There are 28 shells and 58 basis functions
 A cutoff of  1.0D-09 yielded    402 shell pairs
 There are      1773 function pairs (      1968 Cartesian)
 Smallest overlap matrix eigenvalue = 7.21E-03
 Guess from superposition of atomic densities
 Warning:  Energy on first SCF cycle will be non-variational
 SAD guess density has 26.000000 electrons
 Long-range K will be added via erf
 Coulomb attenuation parameter = 0.2 bohr**(-1)
 A restricted hybrid HF-DFT SCF calculation will be
 performed using Relaxed Constraint Minimization + Pulay DIIS
 Exchange:     0.2220 Hartree-Fock + 1.0000 wB97X-D + LR-HF
 Correlation:  1.0000 wB97X-D
 Using Euler-Maclaurin-Lebedev (75,302) quadrature formula
 Dispersion:   Grimme D
 SCF converges when DIIS error is below 1.0E-04
 using 3 threads for integral computing
 -------------------------------------------------------
 OpenMP Integral computing Module                
 Release: version 1.0, May 2013, Q-Chem Inc. Pittsburgh 
 -------------------------------------------------------
 using 3 threads for integral computing
 -------------------------------------------------------
 OpenMP Integral computing Module                
 Release: version 1.0, May 2013, Q-Chem Inc. Pittsburgh 
 -------------------------------------------------------
 ---------------------------------------
  Cycle       Energy         DIIS Error
 ---------------------------------------
    1    -119.6393953942      1.01E-01
    2    -119.0386661035      9.03E-03
    3    -119.0599650127      2.52E-03
    4    -119.0739251068      1.73E-03
    5    -119.0746627116      2.75E-04 Done RCA. Switching to DIIS
    6    -119.0752049451      2.03E-04
    7    -119.0752229631      5.56E-06 Convergence criterion met
 ---------------------------------------
 SCF time:  CPU 33.69 s  wall 11.99 s
 SCF   energy in the small basis set = -119.07522296
 Total energy in the small basis set = -119.07522296
 ----------------------------------------------------
  Cycle       Energy    
 ----------------------------------------------------
    1     -16.5394414586     -1.65E+01
 Long-range K will be added via erf
 Coulomb attenuation parameter = 0.2 bohr**(-1)
 A restricted hybrid HF-DFT SCF calculation will be
 performed using Relaxed Constraint Minimization + Pulay DIIS
 Exchange:     0.2220 Hartree-Fock + 1.0000 wB97X-D + LR-HF
 Correlation:  1.0000 wB97X-D
 Using Euler-Maclaurin-Lebedev (75,302) quadrature formula
 Dispersion:   Grimme D
 SCF converges when DIIS error is below 1.0E-05
 Basis2 calculation detected. Using small basis as guess for larger.
 SCFMinFind is unable to tell whether the solution found is close.
 Resetting ReadMinima to 0 and attempting to follow guess.
 SCFMinFind following SCF Guess.
 using 3 threads for integral computing
 -------------------------------------------------------
 OpenMP Integral computing Module                
 Release: version 1.0, May 2013, Q-Chem Inc. Pittsburgh 
 -------------------------------------------------------
 using 3 threads for integral computing
 -------------------------------------------------------
 OpenMP Integral computing Module                
 Release: version 1.0, May 2013, Q-Chem Inc. Pittsburgh 
 -------------------------------------------------------
 ---------------------------------------
  Cycle       Energy         DIIS Error
 ---------------------------------------
    1    -119.0950995350      4.21E-03
    2    -119.1172097895      6.15E-04 Done RCA. Switching to DIIS
    3    -119.1180790985      4.36E-04
    4    -119.1191222434      4.62E-05
    5    -119.1191377282      1.09E-05
    6    -119.1191385279      4.18E-06 Convergence criterion met
 ---------------------------------------
 SCF time:  CPU 101.26 s  wall 34.40 s
 SCF   energy in the final basis set = -119.11913853
 Total energy in the final basis set = -119.11913853
 
 --------------------------------------------------------------
 
                    Orbital Energies (a.u.)
 --------------------------------------------------------------
 
 Alpha MOs
 -- Occupied --
-10.2738 -10.2668 -10.2666  -0.8844  -0.7806  -0.6775  -0.5489  -0.5258
 -0.4956  -0.4687  -0.4303  -0.4098  -0.3754
 -- Virtual --
  0.0689   0.0847   0.0906   0.0990   0.1249   0.1274   0.1314   0.1427
  0.1462   0.1679   0.1759   0.1912   0.2300   0.2314   0.2440   0.2452
  0.2825   0.2861   0.3133   0.3179   0.3287   0.3447   0.4582   0.4701
  0.4756   0.5052   0.5211   0.5216   0.5510   0.5544   0.5825   0.5982
  0.6129   0.6178   0.6402   0.6432   0.6525   0.6949   0.7049   0.7120
  0.7238   0.7711   0.8020   0.8331   0.8524   0.8932   0.9128   0.9641
  1.0014   1.0438   1.0591   1.1215   1.1280   1.1569   1.1842   1.2118
  1.2178   1.2330   1.2752   1.2827   1.3149   1.3314   1.3489   1.3769
  1.3858   1.4000   1.4097   1.4237   1.4426   1.4692   1.4772   1.4932
  1.5242   1.5699   1.6005   1.6171   1.6390   1.6473   1.6753   1.7200
  1.7224   2.3894   2.4414   2.4876   2.4910   2.5248   2.5754   2.6058
  2.6706   2.7132   2.7842   2.7995   2.8485   2.8565   2.9187   2.9267
  2.9318   3.0011   3.0283   3.0420   3.0427   3.0605   3.0871   3.0962
  3.1147   3.1239   3.1665   3.1822   3.2443   3.2819   3.3061   3.3129
  3.3235   3.3345   3.3365   3.3477   3.3706   3.4133   3.4174   3.4369
  3.4739   3.4957   3.5385   3.5431   3.5739   3.5765   3.6188   3.6315
  3.6390   3.6530   3.6749   3.6778   3.7234   3.7457   3.7805   3.8500
  3.8598   3.9084   3.9217   3.9436   3.9738   4.0043   4.0382   4.0679
  4.0805   4.1003   4.1199   4.1479   4.1683   4.1945   4.2046   4.2103
  4.2232   4.2322   4.2688   4.3355   4.3654   4.3865   4.4370   4.4654
  4.4705   4.5156   4.5992   4.6364   4.7651   4.7951   4.8250   4.8673
  4.9625   4.9654   4.9930   5.0007   5.0484   5.0527   5.0872   5.1351
  5.2048   5.2081   5.2316   5.2462   5.2912   5.3195   5.3357   5.3433
  5.3987   5.4326   5.4772   5.4929   5.5222   5.5913   5.6501   5.7447
  6.0322   6.3668   6.3767   6.3984   6.4310   6.4817  25.1922  25.4316
 25.4418
 --------------------------------------------------------------
 
 -----------------------------------------------------------------
                    Cartesian Multipole Moments
 -----------------------------------------------------------------
    Charge (ESU x 10^10)
                -0.0000
    Dipole Moment (Debye)
         X      -0.0034      Y       0.0023      Z      -0.0436
       Tot       0.0438
    Quadrupole Moments (Debye-Ang)
        XX     -22.0296     XY      -0.6963     YY     -21.5150
        XZ      -0.0236     YZ      -0.0018     ZZ     -21.9820
    Octopole Moments (Debye-Ang^2)
       XXX      -0.0114    XXY       0.0002    XYY      -0.0536
       YYY       0.0470    XXZ      -1.7391    XYZ      -0.1417
       YYZ       0.7719    XZZ       0.0924    YZZ       0.0221
       ZZZ      -0.0444
    Hexadecapole Moments (Debye-Ang^3)
      XXXX    -202.3797   XXXY       4.5353   XXYY     -42.0689
      XYYY       4.1603   YYYY     -44.6292   XXXZ      -0.0078
      XXYZ       0.0129   XYYZ      -0.0259   YYYZ      -0.0065
      XXZZ     -44.9658   XYZZ      -0.3121   YYZZ     -17.4659
      XZZZ       0.1056   YZZZ      -0.0344   ZZZZ     -72.6618
 -----------------------------------------------------------------
Archival summary:
1\1\cn0821\SP\ProcedureUnspecified\BasisUnspecified\38\r0852400\SunApr1206:46:052020SunApr1206:46:052020\0\\#,ProcedureUnspecified,BasisUnspecified,\\0,1\C\H,1,1.09259\H,1,1.09259,2,107.667\C,1,1.52241,2,124.593,3,110.569,0\H,4,1.09068,1,111.417,2,-60.1454,0\H,4,1.09107,1,116.242,2,171.824,0\H,4,1.09227,1,105.264,2,51.8187,0\C,1,1.52569,2,94.9907,3,-127.656,0\H,8,1.09026,1,111.275,2,55.5353,0\H,8,1.09147,1,116.409,2,-73.3501,0\H,8,1.09266,1,105.466,2,168.304,0\\\@

 Total job time:  50.75s(wall), 140.28s(cpu) 
 Sun Apr 12 06:46:05 2020

        *************************************************************
        *                                                           *
        *  Thank you very much for using Q-Chem.  Have a nice day.  *
        *                                                           *
        *************************************************************


