                  Welcome to Q-Chem
     A Quantum Leap Into The Future Of Chemistry


 Q-Chem 5.2 (devel), Q-Chem, Inc., Pleasanton, CA (2019)

 Yihan Shao,  Zhengting Gan,  E. Epifanovsky,  A. T. B. Gilbert,  M. Wormit,  
 J. Kussmann,  A. W. Lange,  A. Behn,  Jia Deng,  Xintian Feng,  D. Ghosh,  
 M. Goldey,  P. R. Horn,  L. D. Jacobson,  I. Kaliman,  T. Kus,  A. Landau,  
 Jie Liu,  E. I. Proynov,  R. M. Richard,  R. P. Steele,  E. J. Sundstrom,  
 H. L. Woodcock III,  P. M. Zimmerman,  D. Zuev,  B. Alam,  B. Albrecht,  
 E. Alguire,  S. A. Baeppler,  D. Barton,  Z. Benda,  Y. A. Bernard,  
 E. J. Berquist,  K. B. Bravaya,  H. Burton,  K. Carter-Fenk,  D. Casanova,  
 Chun-Min Chang,  Yunqing Chen,  A. Chien,  K. D. Closser,  M. P. Coons,  
 S. Coriani,  S. Dasgupta,  A. L. Dempwolff,  M. Diedenhofen,  Hainam Do,  
 R. G. Edgar,  Po-Tung Fang,  S. Faraji,  S. Fatehi,  Qingguo Feng,  
 J. Fosso-Tande,  J. Gayvert,  Qinghui Ge,  A. Ghysels,  G. Gidofalvi,  
 J. Gomes,  J. Gonthier,  A. Gunina,  D. Hait,  M. W. D. Hanson-Heine,  
 P. H. P. Harbach,  A. W. Hauser,  M. F. Herbst,  J. E. Herr,  
 E. G. Hohenstein,  Z. C. Holden,  Kerwin Hui,  B. C. Huynh,  T.-C. Jagau,  
 Hyunjun Ji,  B. Kaduk,  K. Khistyaev,  Jaehoon Kim,  P. Klunzinger,  K. Koh,  
 D. Kosenkov,  L. Koulias,  T. Kowalczyk,  C. M. Krauter,  A. Kunitsa,  
 Ka Un Lao,  A. Laurent,  K. V. Lawler,  Joonho Lee,  D. Lefrancois,  
 S. Lehtola,  D. S. Levine,  Yi-Pei Li,  You-Sheng Lin,  Fenglai Liu,  
 Kuan-Yu Liu,  E. Livshits,  M. Loipersberger,  A. Luenser,  P. Manohar,  
 E. Mansoor,  S. F. Manzer,  Shan-Ping Mao,  Yuezhi Mao,  N. Mardirossian,  
 A. V. Marenich,  T. Markovich,  L. A. Martinez-Martinez,  S. A. Maurer,  
 N. J. Mayhall,  S. C. McKenzie,  J.-M. Mewes,  P. Morgante,  A. F. Morrison,  
 J. W. Mullinax,  K. Nanda,  T. S. Nguyen-Beck,  R. Olivares-Amaya,  
 J. A. Parkhill,  S. K. Paul,  Zheng Pei,  T. M. Perrine,  F. Plasser,  
 P. Pokhilko,  S. Prager,  A. Prociuk,  E. Ramos,  B. Rana,  D. R. Rehn,  
 F. Rob,  M. Scheurer,  M. Schneider,  N. Sergueev,  S. M. Sharada,  
 S. Sharma,  D. W. Small,  T. Stauch,  C. J. Stein,  T. Stein,  Yu-Chuan Su,  
 S. P. Veccham,  A. J. W. Thom,  A. Tkatchenko,  T. Tsuchimochi,  
 N. M. Tubman,  L. Vogt,  M. L. Vidal,  O. Vydrov,  M. A. Watson,  J. Wenzel,  
 M. de Wergifosse,  T. A. Wesolowski,  A. White,  J. Witte,  A. Yamada,  
 Jun Yang,  K. Yao,  S. Yeganeh,  S. R. Yost,  Zhi-Qiang You,  A. Zech,  
 Igor Ying Zhang,  Xing Zhang,  Yan Zhao,  Ying Zhu,  B. R. Brooks,  
 G. K. L. Chan,  C. J. Cramer,  M. S. Gordon,  W. J. Hehre,  A. Klamt,  
 M. W. Schmidt,  C. D. Sherrill,  D. G. Truhlar,  A. Aspuru-Guzik,  R. Baer,  
 A. T. Bell,  N. A. Besley,  Jeng-Da Chai,  A. E. DePrince, III,  
 R. A. DiStasio Jr.,  A. Dreuw,  B. D. Dunietz,  T. R. Furlani,  
 Chao-Ping Hsu,  Yousung Jung,  Jing Kong,  D. S. Lambrecht,  WanZhen Liang,  
 C. Ochsenfeld,  V. A. Rassolov,  L. V. Slipchenko,  J. E. Subotnik,  
 T. Van Voorhis,  J. M. Herbert,  A. I. Krylov,  P. M. W. Gill,  M. Head-Gordon

 Contributors to earlier versions of Q-Chem not listed above: 
 R. D. Adamson,  B. Austin,  J. Baker,  G. J. O. Beran,  K. Brandhorst,  
 S. T. Brown,  E. F. C. Byrd,  A. K. Chakraborty,  C.-L. Cheng,  
 Siu Hung Chien,  D. M. Chipman,  D. L. Crittenden,  H. Dachsel,  
 R. J. Doerksen,  A. D. Dutoi,  L. Fusti-Molnar,  W. A. Goddard III,  
 A. Golubeva-Zadorozhnaya,  S. R. Gwaltney,  G. Hawkins,  A. Heyden,  
 S. Hirata,  G. Kedziora,  F. J. Keil,  C. Kelley,  Jihan Kim,  R. A. King,  
 R. Z. Khaliullin,  P. P. Korambath,  W. Kurlancheek,  A. M. Lee,  M. S. Lee,  
 S. V. Levchenko,  Ching Yeh Lin,  D. Liotard,  R. C. Lochan,  I. Lotan,  
 P. E. Maslen,  N. Nair,  D. P. O'Neill,  D. Neuhauser,  E. Neuscamman,  
 C. M. Oana,  R. Olson,  B. Peters,  R. Peverati,  P. A. Pieniazek,  
 Y. M. Rhee,  J. Ritchie,  M. A. Rohrdanz,  E. Rosta,  N. J. Russ,  
 H. F. Schaefer III,  N. E. Schultz,  N. Shenvi,  A. C. Simmonett,  A. Sodt,  
 D. Stuck,  K. S. Thanthiriwatte,  V. Vanovschi,  Tao Wang,  A. Warshel,  
 C. F. Williams,  Q. Wu,  X. Xu,  W. Zhang

 Please cite Q-Chem as follows:
 Y. Shao et al., Mol. Phys. 113, 184-215 (2015)
 DOI: 10.1080/00268976.2014.952696

 Q-Chem 5.2.2 for Intel X86 EM64T Linux

 Parts of Q-Chem use Armadillo 9.800.1 (Horizon Scraper).
 http://arma.sourceforge.net/

 Q-Chem begins on Sun Apr 12 08:05:31 2020  

Host: cn0821
0

     Scratch files written to /tmp/ypli/6721342.srvc1/qchem193058//
Warning:  Did not find "$end" marker in "$molecule" section

Checking the input file for inconsistencies... 	...done.

--------------------------------------------------------------
User input:
--------------------------------------------------------------
$rem
   JOBTYPE  sp
   EXCHANGE   omegaB97X-D
   BASIS   6-311+G(2df,2pd)
   max_scf_cycles   250
   geom_opt_max_cycles   1500
   basis2 6-31G*
   scf_algorithm rca_diis
   SYM_IGNORE  TRUE
   print_input   true
   geom_opt_dmax   80
   pop_mulliken false
   XC_GRID 000075000302
$end

$molecule
0 1
C       1.2683138239     0.0000203766     0.2689167978
C       0.0000001430     -0.0000560791     -0.5623775999
H       1.3056966934     -0.8851501999     0.9176535583
H       1.3057379125     0.8848702281     0.9173249697
H       2.1485892299     0.0000227831     -0.3367438398
C       -1.2683134567     0.0000205635     0.2689166094
H       0.0000002342     -0.9891124787     -1.3151215110
H       0.0000000714     0.9896420555     -1.3157594490
H       -1.3056965326     -0.8851518127     0.9176547537
H       -2.1485904136     0.0000233805     -0.3367450673
H       -1.3057377660     0.8848718492     0.9173257970
--------------------------------------------------------------
 ----------------------------------------------------------------
             Standard Nuclear Orientation (Angstroms)
    I     Atom           X                Y                Z
 ----------------------------------------------------------------
    1      C       1.2683138239     0.0000203766     0.2689167978
    2      C       0.0000001430    -0.0000560791    -0.5623775999
    3      H       1.3056966934    -0.8851501999     0.9176535583
    4      H       1.3057379125     0.8848702281     0.9173249697
    5      H       2.1485892299     0.0000227831    -0.3367438398
    6      C      -1.2683134567     0.0000205635     0.2689166094
    7      H       0.0000002342    -0.9891124787    -1.3151215110
    8      H       0.0000000714     0.9896420555    -1.3157594490
    9      H      -1.3056965326    -0.8851518127     0.9176547537
   10      H      -2.1485904136     0.0000233805    -0.3367450673
   11      H      -1.3057377660     0.8848718492     0.9173257970
 ----------------------------------------------------------------
 Nuclear Repulsion Energy =          81.85929087 hartrees
 There are       13 alpha and       13 beta electrons
 Requested basis set is 6-311+G(2df,2pd)
 There are 72 shells and 214 basis functions

 Total QAlloc Memory Limit   2000 MB
 Mega-Array Size       188 MB
 MEM_STATIC part       192 MB

                       Distance Matrix (Angstroms)
             C (  1)   C (  2)   H (  3)   H (  4)   H (  5)   C (  6)
   C (  2)  1.516466
   H (  3)  1.098082  2.163037
   H (  4)  1.097631  2.162768  1.770020
   H (  5)  1.068508  2.160404  1.751431  1.751012
   C (  6)  2.536627  1.516466  2.798199  2.798059  3.470165
   H (  7)  2.257472  1.242922  2.588617  3.193835  2.559696  2.257472
   H (  8)  2.258134  1.243819  3.194968  2.588937  2.560128  2.258134
   H (  9)  2.798199  2.163038  2.611393  3.154769  3.780098  1.098084
   H ( 10)  3.470167  2.160405  3.780099  3.779951  4.297180  1.068510
   H ( 11)  2.798060  2.162769  3.154769  2.611476  3.779950  1.097632
             H (  7)   H (  8)   H (  9)   H ( 10)
   H (  8)  1.978755
   H (  9)  2.588618  3.194970
   H ( 10)  2.559698  2.560128  1.751435
   H ( 11)  3.193836  2.588938  1.770024  1.751014
 
 A cutoff of  1.0D-09 yielded   2528 shell pairs
 There are     22574 function pairs (     27755 Cartesian)
 Smallest overlap matrix eigenvalue = 8.64E-05

 Scale SEOQF with 1.000000e-01/1.000000e-01/1.000000e-01

 Standard Electronic Orientation quadrupole field applied
 Nucleus-field energy     =     0.0000000006 hartrees
 Requested basis set is 6-31G(d)
 There are 28 shells and 58 basis functions
 A cutoff of  1.0D-09 yielded    402 shell pairs
 There are      1773 function pairs (      1968 Cartesian)
 Smallest overlap matrix eigenvalue = 7.06E-03
 Guess from superposition of atomic densities
 Warning:  Energy on first SCF cycle will be non-variational
 SAD guess density has 26.000000 electrons
 Long-range K will be added via erf
 Coulomb attenuation parameter = 0.2 bohr**(-1)
 A restricted hybrid HF-DFT SCF calculation will be
 performed using Relaxed Constraint Minimization + Pulay DIIS
 Exchange:     0.2220 Hartree-Fock + 1.0000 wB97X-D + LR-HF
 Correlation:  1.0000 wB97X-D
 Using Euler-Maclaurin-Lebedev (75,302) quadrature formula
 Dispersion:   Grimme D
 SCF converges when DIIS error is below 1.0E-04
 using 3 threads for integral computing
 -------------------------------------------------------
 OpenMP Integral computing Module                
 Release: version 1.0, May 2013, Q-Chem Inc. Pittsburgh 
 -------------------------------------------------------
 using 3 threads for integral computing
 -------------------------------------------------------
 OpenMP Integral computing Module                
 Release: version 1.0, May 2013, Q-Chem Inc. Pittsburgh 
 -------------------------------------------------------
 ---------------------------------------
  Cycle       Energy         DIIS Error
 ---------------------------------------
    1    -119.4794266205      9.67E-02
    2    -119.0481994587      8.77E-03
    3    -119.0681297319      2.36E-03
    4    -119.0815290598      1.64E-03
    5    -119.0821873612      2.29E-04 Done RCA. Switching to DIIS
    6    -119.0827034045      1.78E-04
    7    -119.0827175947      4.66E-06 Convergence criterion met
 ---------------------------------------
 SCF time:  CPU 33.08 s  wall 11.43 s
 SCF   energy in the small basis set = -119.08271759
 Total energy in the small basis set = -119.08271759
 ----------------------------------------------------
  Cycle       Energy    
 ----------------------------------------------------
    1     -16.4603080046     -1.65E+01
 Long-range K will be added via erf
 Coulomb attenuation parameter = 0.2 bohr**(-1)
 A restricted hybrid HF-DFT SCF calculation will be
 performed using Relaxed Constraint Minimization + Pulay DIIS
 Exchange:     0.2220 Hartree-Fock + 1.0000 wB97X-D + LR-HF
 Correlation:  1.0000 wB97X-D
 Using Euler-Maclaurin-Lebedev (75,302) quadrature formula
 Dispersion:   Grimme D
 SCF converges when DIIS error is below 1.0E-05
 Basis2 calculation detected. Using small basis as guess for larger.
 SCFMinFind is unable to tell whether the solution found is close.
 Resetting ReadMinima to 0 and attempting to follow guess.
 SCFMinFind following SCF Guess.
 using 3 threads for integral computing
 -------------------------------------------------------
 OpenMP Integral computing Module                
 Release: version 1.0, May 2013, Q-Chem Inc. Pittsburgh 
 -------------------------------------------------------
 using 3 threads for integral computing
 -------------------------------------------------------
 OpenMP Integral computing Module                
 Release: version 1.0, May 2013, Q-Chem Inc. Pittsburgh 
 -------------------------------------------------------
 ---------------------------------------
  Cycle       Energy         DIIS Error
 ---------------------------------------
    1    -119.1012913890      4.20E-03
    2    -119.1231660091      5.69E-04 Done RCA. Switching to DIIS
    3    -119.1238962012      4.12E-04
    4    -119.1248386941      5.09E-05
    5    -119.1248560034      1.70E-05
    6    -119.1248576854      4.29E-06 Convergence criterion met
 ---------------------------------------
 SCF time:  CPU 96.13 s  wall 32.58 s
 SCF   energy in the final basis set = -119.12485769
 Total energy in the final basis set = -119.12485769
 
 --------------------------------------------------------------
 
                    Orbital Energies (a.u.)
 --------------------------------------------------------------
 
 Alpha MOs
 -- Occupied --
-10.3045 -10.2670 -10.2669  -0.8784  -0.7821  -0.6590  -0.5358  -0.5289
 -0.4853  -0.4647  -0.4273  -0.4104  -0.3897
 -- Virtual --
  0.0692   0.0850   0.0888   0.0962   0.1240   0.1292   0.1329   0.1392
  0.1433   0.1706   0.1707   0.1910   0.2172   0.2285   0.2409   0.2409
  0.2780   0.2880   0.3068   0.3141   0.3270   0.3507   0.4529   0.4698
  0.4748   0.5082   0.5133   0.5134   0.5451   0.5555   0.5605   0.5800
  0.6242   0.6253   0.6270   0.6472   0.6486   0.6494   0.6771   0.7070
  0.7247   0.7570   0.8087   0.8560   0.8620   0.8663   0.8970   0.9457
  1.0002   1.0295   1.0538   1.1375   1.1464   1.1597   1.1723   1.1999
  1.2083   1.2098   1.2317   1.2563   1.2743   1.2888   1.3326   1.3741
  1.3806   1.3995   1.4055   1.4172   1.4504   1.4556   1.4642   1.4683
  1.4877   1.5424   1.5854   1.6227   1.6263   1.6299   1.6865   1.6879
  1.7104   2.3615   2.4492   2.4525   2.5309   2.5535   2.5969   2.6177
  2.6269   2.7190   2.7933   2.8346   2.8386   2.8602   2.8920   2.9134
  2.9195   2.9336   2.9487   2.9805   3.0225   3.0554   3.0822   3.0989
  3.1250   3.1360   3.1865   3.1950   3.2039   3.2135   3.2413   3.2557
  3.2826   3.3261   3.3277   3.3295   3.3484   3.3551   3.3600   3.3730
  3.4564   3.4699   3.4711   3.5050   3.5548   3.5692   3.6034   3.6181
  3.6224   3.6265   3.6623   3.7003   3.7499   3.7710   3.8498   3.8685
  3.8843   3.9231   3.9304   3.9469   3.9553   3.9584   3.9785   4.0187
  4.0324   4.0325   4.0877   4.1119   4.1177   4.1411   4.1441   4.1735
  4.2151   4.2289   4.2444   4.2702   4.3336   4.3445   4.3820   4.3975
  4.4275   4.4517   4.4665   4.5348   4.6334   4.6341   4.6876   4.8305
  4.8401   4.8494   4.8527   4.9447   4.9951   5.0008   5.0051   5.0203
  5.0280   5.1208   5.2354   5.2406   5.2525   5.2753   5.2969   5.3229
  5.3819   5.3872   5.4156   5.4442   5.4447   5.4787   5.4977   5.7559
  5.8000   6.0364   6.3652   6.3729   6.4202   6.4348  24.7124  25.4511
 25.4697
 --------------------------------------------------------------
 
 -----------------------------------------------------------------
                    Cartesian Multipole Moments
 -----------------------------------------------------------------
    Charge (ESU x 10^10)
                -0.0000
    Dipole Moment (Debye)
         X       0.0000      Y      -0.0003      Z       0.1314
       Tot       0.1314
    Quadrupole Moments (Debye-Ang)
        XX     -21.9866     XY      -0.0000     YY     -21.6020
        XZ       0.0000     YZ       0.0011     ZZ     -22.3428
    Octopole Moments (Debye-Ang^2)
       XXX       0.0000    XXY       0.0019    XYY       0.0000
       YYY      -0.0009    XXZ      -1.2884    XYZ       0.0000
       YYZ       0.6097    XZZ       0.0000    YZZ      -0.0012
       ZZZ       0.4726
    Hexadecapole Moments (Debye-Ang^3)
      XXXX    -198.4697   XXXY      -0.0000   XXYY     -42.4670
      XYYY       0.0000   YYYY     -48.1478   XXXZ       0.0000
      XXYZ       0.0047   XYYZ      -0.0000   YYYZ       0.0109
      XXZZ     -45.9147   XYZZ       0.0000   YYZZ     -18.1667
      XZZZ       0.0000   YZZZ       0.0116   ZZZZ     -77.6784
 -----------------------------------------------------------------
Archival summary:
1\1\cn0821\SP\ProcedureUnspecified\BasisUnspecified\38\r0852400\SunApr1208:06:192020SunApr1208:06:192020\0\\#,ProcedureUnspecified,BasisUnspecified,\\0,1\C\H,1,1.24292\H,1,1.24382,2,105.447\C,1,1.51647,2,109.392,3,117.543,0\H,4,1.06851,1,112.229,2,-57.5204,0\H,4,1.09763,1,110.633,2,-178.049,0\H,4,1.09808,1,110.628,2,63.0107,0\C,1,1.51647,2,109.392,3,-117.543,0\H,8,1.06851,1,112.229,2,57.5204,0\H,8,1.09763,1,110.633,2,178.049,0\H,8,1.09808,1,110.628,2,-63.0107,0\\\@

 Total job time:  48.18s(wall), 134.29s(cpu) 
 Sun Apr 12 08:06:19 2020

        *************************************************************
        *                                                           *
        *  Thank you very much for using Q-Chem.  Have a nice day.  *
        *                                                           *
        *************************************************************


