                  Welcome to Q-Chem
     A Quantum Leap Into The Future Of Chemistry


 Q-Chem 5.2 (devel), Q-Chem, Inc., Pleasanton, CA (2019)

 Yihan Shao,  Zhengting Gan,  E. Epifanovsky,  A. T. B. Gilbert,  M. Wormit,  
 J. Kussmann,  A. W. Lange,  A. Behn,  Jia Deng,  Xintian Feng,  D. Ghosh,  
 M. Goldey,  P. R. Horn,  L. D. Jacobson,  I. Kaliman,  T. Kus,  A. Landau,  
 Jie Liu,  E. I. Proynov,  R. M. Richard,  R. P. Steele,  E. J. Sundstrom,  
 H. L. Woodcock III,  P. M. Zimmerman,  D. Zuev,  B. Alam,  B. Albrecht,  
 E. Alguire,  S. A. Baeppler,  D. Barton,  Z. Benda,  Y. A. Bernard,  
 E. J. Berquist,  K. B. Bravaya,  H. Burton,  K. Carter-Fenk,  D. Casanova,  
 Chun-Min Chang,  Yunqing Chen,  A. Chien,  K. D. Closser,  M. P. Coons,  
 S. Coriani,  S. Dasgupta,  A. L. Dempwolff,  M. Diedenhofen,  Hainam Do,  
 R. G. Edgar,  Po-Tung Fang,  S. Faraji,  S. Fatehi,  Qingguo Feng,  
 J. Fosso-Tande,  J. Gayvert,  Qinghui Ge,  A. Ghysels,  G. Gidofalvi,  
 J. Gomes,  J. Gonthier,  A. Gunina,  D. Hait,  M. W. D. Hanson-Heine,  
 P. H. P. Harbach,  A. W. Hauser,  M. F. Herbst,  J. E. Herr,  
 E. G. Hohenstein,  Z. C. Holden,  Kerwin Hui,  B. C. Huynh,  T.-C. Jagau,  
 Hyunjun Ji,  B. Kaduk,  K. Khistyaev,  Jaehoon Kim,  P. Klunzinger,  K. Koh,  
 D. Kosenkov,  L. Koulias,  T. Kowalczyk,  C. M. Krauter,  A. Kunitsa,  
 Ka Un Lao,  A. Laurent,  K. V. Lawler,  Joonho Lee,  D. Lefrancois,  
 S. Lehtola,  D. S. Levine,  Yi-Pei Li,  You-Sheng Lin,  Fenglai Liu,  
 Kuan-Yu Liu,  E. Livshits,  M. Loipersberger,  A. Luenser,  P. Manohar,  
 E. Mansoor,  S. F. Manzer,  Shan-Ping Mao,  Yuezhi Mao,  N. Mardirossian,  
 A. V. Marenich,  T. Markovich,  L. A. Martinez-Martinez,  S. A. Maurer,  
 N. J. Mayhall,  S. C. McKenzie,  J.-M. Mewes,  P. Morgante,  A. F. Morrison,  
 J. W. Mullinax,  K. Nanda,  T. S. Nguyen-Beck,  R. Olivares-Amaya,  
 J. A. Parkhill,  S. K. Paul,  Zheng Pei,  T. M. Perrine,  F. Plasser,  
 P. Pokhilko,  S. Prager,  A. Prociuk,  E. Ramos,  B. Rana,  D. R. Rehn,  
 F. Rob,  M. Scheurer,  M. Schneider,  N. Sergueev,  S. M. Sharada,  
 S. Sharma,  D. W. Small,  T. Stauch,  C. J. Stein,  T. Stein,  Yu-Chuan Su,  
 S. P. Veccham,  A. J. W. Thom,  A. Tkatchenko,  T. Tsuchimochi,  
 N. M. Tubman,  L. Vogt,  M. L. Vidal,  O. Vydrov,  M. A. Watson,  J. Wenzel,  
 M. de Wergifosse,  T. A. Wesolowski,  A. White,  J. Witte,  A. Yamada,  
 Jun Yang,  K. Yao,  S. Yeganeh,  S. R. Yost,  Zhi-Qiang You,  A. Zech,  
 Igor Ying Zhang,  Xing Zhang,  Yan Zhao,  Ying Zhu,  B. R. Brooks,  
 G. K. L. Chan,  C. J. Cramer,  M. S. Gordon,  W. J. Hehre,  A. Klamt,  
 M. W. Schmidt,  C. D. Sherrill,  D. G. Truhlar,  A. Aspuru-Guzik,  R. Baer,  
 A. T. Bell,  N. A. Besley,  Jeng-Da Chai,  A. E. DePrince, III,  
 R. A. DiStasio Jr.,  A. Dreuw,  B. D. Dunietz,  T. R. Furlani,  
 Chao-Ping Hsu,  Yousung Jung,  Jing Kong,  D. S. Lambrecht,  WanZhen Liang,  
 C. Ochsenfeld,  V. A. Rassolov,  L. V. Slipchenko,  J. E. Subotnik,  
 T. Van Voorhis,  J. M. Herbert,  A. I. Krylov,  P. M. W. Gill,  M. Head-Gordon

 Contributors to earlier versions of Q-Chem not listed above: 
 R. D. Adamson,  B. Austin,  J. Baker,  G. J. O. Beran,  K. Brandhorst,  
 S. T. Brown,  E. F. C. Byrd,  A. K. Chakraborty,  C.-L. Cheng,  
 Siu Hung Chien,  D. M. Chipman,  D. L. Crittenden,  H. Dachsel,  
 R. J. Doerksen,  A. D. Dutoi,  L. Fusti-Molnar,  W. A. Goddard III,  
 A. Golubeva-Zadorozhnaya,  S. R. Gwaltney,  G. Hawkins,  A. Heyden,  
 S. Hirata,  G. Kedziora,  F. J. Keil,  C. Kelley,  Jihan Kim,  R. A. King,  
 R. Z. Khaliullin,  P. P. Korambath,  W. Kurlancheek,  A. M. Lee,  M. S. Lee,  
 S. V. Levchenko,  Ching Yeh Lin,  D. Liotard,  R. C. Lochan,  I. Lotan,  
 P. E. Maslen,  N. Nair,  D. P. O'Neill,  D. Neuhauser,  E. Neuscamman,  
 C. M. Oana,  R. Olson,  B. Peters,  R. Peverati,  P. A. Pieniazek,  
 Y. M. Rhee,  J. Ritchie,  M. A. Rohrdanz,  E. Rosta,  N. J. Russ,  
 H. F. Schaefer III,  N. E. Schultz,  N. Shenvi,  A. C. Simmonett,  A. Sodt,  
 D. Stuck,  K. S. Thanthiriwatte,  V. Vanovschi,  Tao Wang,  A. Warshel,  
 C. F. Williams,  Q. Wu,  X. Xu,  W. Zhang

 Please cite Q-Chem as follows:
 Y. Shao et al., Mol. Phys. 113, 184-215 (2015)
 DOI: 10.1080/00268976.2014.952696

 Q-Chem 5.2.2 for Intel X86 EM64T Linux

 Parts of Q-Chem use Armadillo 9.800.1 (Horizon Scraper).
 http://arma.sourceforge.net/

 Q-Chem begins on Sun Apr 12 06:11:19 2020  

Host: cn0821
0

     Scratch files written to /tmp/ypli/6721342.srvc1/qchem175533//
Warning:  Did not find "$end" marker in "$molecule" section

Checking the input file for inconsistencies... 	...done.

--------------------------------------------------------------
User input:
--------------------------------------------------------------
$rem
   JOBTYPE  sp
   EXCHANGE   omegaB97X-D
   BASIS   6-311+G(2df,2pd)
   max_scf_cycles   250
   geom_opt_max_cycles   1500
   basis2 6-31G*
   scf_algorithm rca_diis
   SYM_IGNORE  TRUE
   print_input   true
   geom_opt_dmax   80
   pop_mulliken false
   XC_GRID 000075000302
$end

$molecule
0 1
C       1.1606465404     0.0420078481     0.4001855786
C       -0.0682809210     -0.0013675463     -0.5919968688
H       1.3511337724     -0.8954543857     0.9262651401
H       1.4834904570     0.8608344940     1.0416401720
H       1.8117453385     -0.0025162622     -0.4778898401
C       -1.3607419963     -0.0352919071     0.1033704988
H       0.2653123239     -0.8449617228     -1.2009478030
H       0.0736265895     0.8712465012     -1.2339966472
H       -1.2092155090     -0.8241351043     0.8431242734
H       -2.4105098378     -0.0084613159     -0.1770037591
H       -1.0972068181     0.8381000669     0.7082942742
--------------------------------------------------------------
 ----------------------------------------------------------------
             Standard Nuclear Orientation (Angstroms)
    I     Atom           X                Y                Z
 ----------------------------------------------------------------
    1      C       1.1606465404     0.0420078481     0.4001855786
    2      C      -0.0682809210    -0.0013675463    -0.5919968688
    3      H       1.3511337724    -0.8954543857     0.9262651401
    4      H       1.4834904570     0.8608344940     1.0416401720
    5      H       1.8117453385    -0.0025162622    -0.4778898401
    6      C      -1.3607419963    -0.0352919071     0.1033704988
    7      H       0.2653123239    -0.8449617228    -1.2009478030
    8      H       0.0736265895     0.8712465012    -1.2339966472
    9      H      -1.2092155090    -0.8241351043     0.8431242734
   10      H      -2.4105098378    -0.0084613159    -0.1770037591
   11      H      -1.0972068181     0.8381000669     0.7082942742
 ----------------------------------------------------------------
 Nuclear Repulsion Energy =          83.30506156 hartrees
 There are       13 alpha and       13 beta electrons
 Requested basis set is 6-311+G(2df,2pd)
 There are 72 shells and 214 basis functions

 Total QAlloc Memory Limit   2000 MB
 Mega-Array Size       188 MB
 MEM_STATIC part       192 MB

                       Distance Matrix (Angstroms)
             C (  1)   C (  2)   H (  3)   H (  4)   H (  5)   C (  6)
   C (  2)  1.580054
   H (  3)  1.091733  2.262576
   H (  4)  1.089114  2.412500  1.765044
   H (  5)  1.094042  1.883486  1.726601  1.778229
   C (  6)  2.539975  1.468040  2.961639  3.126188  3.225463
   H (  7)  2.037637  1.092592  2.388848  3.069674  1.903676  2.236261
   H (  8)  2.130681  1.092592  3.069200  2.677003  2.087155  2.160504
   H (  9)  2.561766  2.009540  2.562691  3.182640  3.397991  1.092003
   H ( 10)  3.617852  2.378719  4.019194  4.171811  4.232967  1.086896
   H ( 11)  2.413834  1.858535  3.007839  2.602236  3.252026  1.094622
             H (  7)   H (  8)   H (  9)   H ( 10)
   H (  8)  1.727196
   H (  9)  2.520495  2.972278
   H ( 10)  2.984664  2.839376  1.774568
   H ( 11)  2.886929  2.268137  1.671452  1.795880
 
 A cutoff of  1.0D-09 yielded   2544 shell pairs
 There are     22665 function pairs (     27888 Cartesian)
 Smallest overlap matrix eigenvalue = 9.17E-05

 Scale SEOQF with 1.000000e-01/1.000000e-01/1.000000e-01

 Standard Electronic Orientation quadrupole field applied
 Nucleus-field energy     =     0.0000000005 hartrees
 Requested basis set is 6-31G(d)
 There are 28 shells and 58 basis functions
 A cutoff of  1.0D-09 yielded    401 shell pairs
 There are      1772 function pairs (      1967 Cartesian)
 Smallest overlap matrix eigenvalue = 5.62E-03
 Guess from superposition of atomic densities
 Warning:  Energy on first SCF cycle will be non-variational
 SAD guess density has 26.000000 electrons
 Long-range K will be added via erf
 Coulomb attenuation parameter = 0.2 bohr**(-1)
 A restricted hybrid HF-DFT SCF calculation will be
 performed using Relaxed Constraint Minimization + Pulay DIIS
 Exchange:     0.2220 Hartree-Fock + 1.0000 wB97X-D + LR-HF
 Correlation:  1.0000 wB97X-D
 Using Euler-Maclaurin-Lebedev (75,302) quadrature formula
 Dispersion:   Grimme D
 SCF converges when DIIS error is below 1.0E-04
 using 3 threads for integral computing
 -------------------------------------------------------
 OpenMP Integral computing Module                
 Release: version 1.0, May 2013, Q-Chem Inc. Pittsburgh 
 -------------------------------------------------------
 using 3 threads for integral computing
 -------------------------------------------------------
 OpenMP Integral computing Module                
 Release: version 1.0, May 2013, Q-Chem Inc. Pittsburgh 
 -------------------------------------------------------
 ---------------------------------------
  Cycle       Energy         DIIS Error
 ---------------------------------------
    1    -119.6974186935      1.03E-01
    2    -119.0124585960      9.02E-03
    3    -119.0337974959      2.60E-03
    4    -119.0475240698      1.79E-03
    5    -119.0483128128      2.88E-04 Done RCA. Switching to DIIS
    6    -119.0488889436      2.15E-04
    7    -119.0489088874      5.35E-06 Convergence criterion met
 ---------------------------------------
 SCF time:  CPU 33.96 s  wall 11.74 s
 SCF   energy in the small basis set = -119.04890889
 Total energy in the small basis set = -119.04890889
 ----------------------------------------------------
  Cycle       Energy    
 ----------------------------------------------------
    1     -16.5467507223     -1.65E+01
 Long-range K will be added via erf
 Coulomb attenuation parameter = 0.2 bohr**(-1)
 A restricted hybrid HF-DFT SCF calculation will be
 performed using Relaxed Constraint Minimization + Pulay DIIS
 Exchange:     0.2220 Hartree-Fock + 1.0000 wB97X-D + LR-HF
 Correlation:  1.0000 wB97X-D
 Using Euler-Maclaurin-Lebedev (75,302) quadrature formula
 Dispersion:   Grimme D
 SCF converges when DIIS error is below 1.0E-05
 Basis2 calculation detected. Using small basis as guess for larger.
 SCFMinFind is unable to tell whether the solution found is close.
 Resetting ReadMinima to 0 and attempting to follow guess.
 SCFMinFind following SCF Guess.
 using 3 threads for integral computing
 -------------------------------------------------------
 OpenMP Integral computing Module                
 Release: version 1.0, May 2013, Q-Chem Inc. Pittsburgh 
 -------------------------------------------------------
 using 3 threads for integral computing
 -------------------------------------------------------
 OpenMP Integral computing Module                
 Release: version 1.0, May 2013, Q-Chem Inc. Pittsburgh 
 -------------------------------------------------------
 ---------------------------------------
  Cycle       Energy         DIIS Error
 ---------------------------------------
    1    -119.0698280969      4.21E-03
    2    -119.0918896624      6.18E-04 Done RCA. Switching to DIIS
    3    -119.0927791811      4.37E-04
    4    -119.0938254139      4.67E-05
    5    -119.0938413327      1.20E-05
    6    -119.0938422859      4.63E-06 Convergence criterion met
 ---------------------------------------
 SCF time:  CPU 100.45 s  wall 34.01 s
 SCF   energy in the final basis set = -119.09384229
 Total energy in the final basis set = -119.09384229
 
 --------------------------------------------------------------
 
                    Orbital Energies (a.u.)
 --------------------------------------------------------------
 
 Alpha MOs
 -- Occupied --
-10.2852 -10.2688 -10.2620  -0.8947  -0.7841  -0.6798  -0.5521  -0.5394
 -0.4898  -0.4606  -0.4145  -0.4003  -0.3957
 -- Virtual --
  0.0680   0.0845   0.0890   0.0983   0.1171   0.1301   0.1332   0.1402
  0.1437   0.1699   0.1722   0.1977   0.2222   0.2359   0.2477   0.2574
  0.2630   0.2813   0.2844   0.3313   0.3439   0.3554   0.4597   0.4649
  0.4734   0.4971   0.5116   0.5153   0.5459   0.5775   0.5825   0.5882
  0.6033   0.6116   0.6305   0.6707   0.6787   0.6820   0.7127   0.7158
  0.7281   0.7800   0.8088   0.8303   0.8662   0.8993   0.9380   0.9750
  0.9775   1.0047   1.0807   1.1101   1.1435   1.1822   1.1968   1.2102
  1.2286   1.2438   1.2800   1.2961   1.3071   1.3097   1.3292   1.3725
  1.3913   1.4085   1.4233   1.4471   1.4597   1.4857   1.4943   1.5182
  1.5362   1.5683   1.5959   1.6424   1.6488   1.6565   1.6640   1.6860
  1.7370   2.4035   2.4117   2.5045   2.5109   2.5464   2.5671   2.6457
  2.6542   2.7030   2.7978   2.8088   2.8640   2.9074   2.9143   2.9255
  2.9480   2.9622   2.9912   3.0343   3.0564   3.0630   3.1009   3.1148
  3.1337   3.1463   3.1708   3.1985   3.2160   3.2405   3.2749   3.2770
  3.3246   3.3359   3.3529   3.3648   3.3881   3.4121   3.4356   3.4413
  3.4556   3.4917   3.5265   3.5448   3.5554   3.5733   3.5917   3.6022
  3.6132   3.6435   3.6676   3.7247   3.7388   3.7506   3.8262   3.8368
  3.8864   3.9120   3.9278   3.9549   3.9968   4.0246   4.0430   4.0832
  4.0930   4.1191   4.1498   4.1689   4.1947   4.2092   4.2290   4.2440
  4.2845   4.2998   4.3473   4.3773   4.3814   4.4120   4.4551   4.4788
  4.5241   4.5877   4.6132   4.6422   4.7178   4.7788   4.8397   4.8527
  4.8976   4.9380   4.9649   5.0106   5.0407   5.0774   5.0974   5.1652
  5.1845   5.2161   5.2526   5.2846   5.2913   5.3280   5.3521   5.3764
  5.3854   5.4157   5.5015   5.5371   5.5989   5.6827   5.8103   5.8774
  6.1031   6.4177   6.4303   6.4427   6.5171   6.5354  25.2054  25.3961
 25.4721
 --------------------------------------------------------------
 
 -----------------------------------------------------------------
                    Cartesian Multipole Moments
 -----------------------------------------------------------------
    Charge (ESU x 10^10)
                -0.0000
    Dipole Moment (Debye)
         X       0.1087      Y       0.0378      Z      -0.0666
       Tot       0.1329
    Quadrupole Moments (Debye-Ang)
        XX     -21.9729     XY       0.0087     YY     -21.6696
        XZ       0.1014     YZ      -0.0613     ZZ     -22.0417
    Octopole Moments (Debye-Ang^2)
       XXX      -0.9103    XXY      -0.0129    XYY       2.1581
       YYY      -0.0306    XXZ      -0.4312    XYZ       0.5316
       YYZ       0.4658    XZZ       2.7948    YZZ       0.1483
       ZZZ       0.0310
    Hexadecapole Moments (Debye-Ang^3)
      XXXX    -196.0587   XXXY      -0.7020   XXYY     -41.9783
      XYYY      -1.6166   YYYY     -43.9576   XXXZ      -3.8321
      XXYZ       0.3398   XYYZ      -1.2289   YYYZ      -0.2351
      XXZZ     -45.0290   XYZZ      -0.0529   YYZZ     -17.5565
      XZZZ      -5.5805   YZZZ      -0.1594   ZZZZ     -72.9748
 -----------------------------------------------------------------
Archival summary:
1\1\cn0821\SP\ProcedureUnspecified\BasisUnspecified\38\r0852400\SunApr1206:12:092020SunApr1206:12:092020\0\\#,ProcedureUnspecified,BasisUnspecified,\\0,1\C\H,1,1.09259\H,1,1.09259,2,104.448\C,1,1.46804,2,114.276,3,-134.392,0\H,4,1.0869,1,136.683,2,56.5218,0\H,4,1.092,1,102.439,2,-167.304,0\H,4,1.09462,1,91.7975,2,-66.9532,0\C,1,1.58005,2,104.243,3,101.996,0\H,8,1.08911,1,128.392,2,54.08,0\H,8,1.09173,1,114.502,2,-163.183,0\H,8,1.09404,1,87.5801,2,-58.4986,0\\\@

 Total job time:  49.94s(wall), 139.55s(cpu) 
 Sun Apr 12 06:12:09 2020

        *************************************************************
        *                                                           *
        *  Thank you very much for using Q-Chem.  Have a nice day.  *
        *                                                           *
        *************************************************************


