                  Welcome to Q-Chem
     A Quantum Leap Into The Future Of Chemistry


 Q-Chem 5.2 (devel), Q-Chem, Inc., Pleasanton, CA (2019)

 Yihan Shao,  Zhengting Gan,  E. Epifanovsky,  A. T. B. Gilbert,  M. Wormit,  
 J. Kussmann,  A. W. Lange,  A. Behn,  Jia Deng,  Xintian Feng,  D. Ghosh,  
 M. Goldey,  P. R. Horn,  L. D. Jacobson,  I. Kaliman,  T. Kus,  A. Landau,  
 Jie Liu,  E. I. Proynov,  R. M. Richard,  R. P. Steele,  E. J. Sundstrom,  
 H. L. Woodcock III,  P. M. Zimmerman,  D. Zuev,  B. Alam,  B. Albrecht,  
 E. Alguire,  S. A. Baeppler,  D. Barton,  Z. Benda,  Y. A. Bernard,  
 E. J. Berquist,  K. B. Bravaya,  H. Burton,  K. Carter-Fenk,  D. Casanova,  
 Chun-Min Chang,  Yunqing Chen,  A. Chien,  K. D. Closser,  M. P. Coons,  
 S. Coriani,  S. Dasgupta,  A. L. Dempwolff,  M. Diedenhofen,  Hainam Do,  
 R. G. Edgar,  Po-Tung Fang,  S. Faraji,  S. Fatehi,  Qingguo Feng,  
 J. Fosso-Tande,  J. Gayvert,  Qinghui Ge,  A. Ghysels,  G. Gidofalvi,  
 J. Gomes,  J. Gonthier,  A. Gunina,  D. Hait,  M. W. D. Hanson-Heine,  
 P. H. P. Harbach,  A. W. Hauser,  M. F. Herbst,  J. E. Herr,  
 E. G. Hohenstein,  Z. C. Holden,  Kerwin Hui,  B. C. Huynh,  T.-C. Jagau,  
 Hyunjun Ji,  B. Kaduk,  K. Khistyaev,  Jaehoon Kim,  P. Klunzinger,  K. Koh,  
 D. Kosenkov,  L. Koulias,  T. Kowalczyk,  C. M. Krauter,  A. Kunitsa,  
 Ka Un Lao,  A. Laurent,  K. V. Lawler,  Joonho Lee,  D. Lefrancois,  
 S. Lehtola,  D. S. Levine,  Yi-Pei Li,  You-Sheng Lin,  Fenglai Liu,  
 Kuan-Yu Liu,  E. Livshits,  M. Loipersberger,  A. Luenser,  P. Manohar,  
 E. Mansoor,  S. F. Manzer,  Shan-Ping Mao,  Yuezhi Mao,  N. Mardirossian,  
 A. V. Marenich,  T. Markovich,  L. A. Martinez-Martinez,  S. A. Maurer,  
 N. J. Mayhall,  S. C. McKenzie,  J.-M. Mewes,  P. Morgante,  A. F. Morrison,  
 J. W. Mullinax,  K. Nanda,  T. S. Nguyen-Beck,  R. Olivares-Amaya,  
 J. A. Parkhill,  S. K. Paul,  Zheng Pei,  T. M. Perrine,  F. Plasser,  
 P. Pokhilko,  S. Prager,  A. Prociuk,  E. Ramos,  B. Rana,  D. R. Rehn,  
 F. Rob,  M. Scheurer,  M. Schneider,  N. Sergueev,  S. M. Sharada,  
 S. Sharma,  D. W. Small,  T. Stauch,  C. J. Stein,  T. Stein,  Yu-Chuan Su,  
 S. P. Veccham,  A. J. W. Thom,  A. Tkatchenko,  T. Tsuchimochi,  
 N. M. Tubman,  L. Vogt,  M. L. Vidal,  O. Vydrov,  M. A. Watson,  J. Wenzel,  
 M. de Wergifosse,  T. A. Wesolowski,  A. White,  J. Witte,  A. Yamada,  
 Jun Yang,  K. Yao,  S. Yeganeh,  S. R. Yost,  Zhi-Qiang You,  A. Zech,  
 Igor Ying Zhang,  Xing Zhang,  Yan Zhao,  Ying Zhu,  B. R. Brooks,  
 G. K. L. Chan,  C. J. Cramer,  M. S. Gordon,  W. J. Hehre,  A. Klamt,  
 M. W. Schmidt,  C. D. Sherrill,  D. G. Truhlar,  A. Aspuru-Guzik,  R. Baer,  
 A. T. Bell,  N. A. Besley,  Jeng-Da Chai,  A. E. DePrince, III,  
 R. A. DiStasio Jr.,  A. Dreuw,  B. D. Dunietz,  T. R. Furlani,  
 Chao-Ping Hsu,  Yousung Jung,  Jing Kong,  D. S. Lambrecht,  WanZhen Liang,  
 C. Ochsenfeld,  V. A. Rassolov,  L. V. Slipchenko,  J. E. Subotnik,  
 T. Van Voorhis,  J. M. Herbert,  A. I. Krylov,  P. M. W. Gill,  M. Head-Gordon

 Contributors to earlier versions of Q-Chem not listed above: 
 R. D. Adamson,  B. Austin,  J. Baker,  G. J. O. Beran,  K. Brandhorst,  
 S. T. Brown,  E. F. C. Byrd,  A. K. Chakraborty,  C.-L. Cheng,  
 Siu Hung Chien,  D. M. Chipman,  D. L. Crittenden,  H. Dachsel,  
 R. J. Doerksen,  A. D. Dutoi,  L. Fusti-Molnar,  W. A. Goddard III,  
 A. Golubeva-Zadorozhnaya,  S. R. Gwaltney,  G. Hawkins,  A. Heyden,  
 S. Hirata,  G. Kedziora,  F. J. Keil,  C. Kelley,  Jihan Kim,  R. A. King,  
 R. Z. Khaliullin,  P. P. Korambath,  W. Kurlancheek,  A. M. Lee,  M. S. Lee,  
 S. V. Levchenko,  Ching Yeh Lin,  D. Liotard,  R. C. Lochan,  I. Lotan,  
 P. E. Maslen,  N. Nair,  D. P. O'Neill,  D. Neuhauser,  E. Neuscamman,  
 C. M. Oana,  R. Olson,  B. Peters,  R. Peverati,  P. A. Pieniazek,  
 Y. M. Rhee,  J. Ritchie,  M. A. Rohrdanz,  E. Rosta,  N. J. Russ,  
 H. F. Schaefer III,  N. E. Schultz,  N. Shenvi,  A. C. Simmonett,  A. Sodt,  
 D. Stuck,  K. S. Thanthiriwatte,  V. Vanovschi,  Tao Wang,  A. Warshel,  
 C. F. Williams,  Q. Wu,  X. Xu,  W. Zhang

 Please cite Q-Chem as follows:
 Y. Shao et al., Mol. Phys. 113, 184-215 (2015)
 DOI: 10.1080/00268976.2014.952696

 Q-Chem 5.2.2 for Intel X86 EM64T Linux

 Parts of Q-Chem use Armadillo 9.800.1 (Horizon Scraper).
 http://arma.sourceforge.net/

 Q-Chem begins on Sun Apr 12 06:31:34 2020  

Host: cn0821
0

     Scratch files written to /tmp/ypli/6721342.srvc1/qchem178575//
Warning:  Did not find "$end" marker in "$molecule" section

Checking the input file for inconsistencies... 	...done.

--------------------------------------------------------------
User input:
--------------------------------------------------------------
$rem
   JOBTYPE  sp
   EXCHANGE   omegaB97X-D
   BASIS   6-311+G(2df,2pd)
   max_scf_cycles   250
   geom_opt_max_cycles   1500
   basis2 6-31G*
   scf_algorithm rca_diis
   SYM_IGNORE  TRUE
   print_input   true
   geom_opt_dmax   80
   pop_mulliken false
   XC_GRID 000075000302
$end

$molecule
0 1
C       1.2754203866     0.0228166031     0.1883557228
C       -0.0000000718     -0.0225224337     -0.5467273354
H       1.1424314026     -0.8395076923     0.8500155105
H       1.1946367203     0.8613279351     0.8836039582
H       2.2585986603     -0.0283368723     -0.2710059321
C       -1.2754203279     0.0228166783     0.1883556263
H       0.0000003720     -0.8735342019     -1.2292127375
H       -0.0000002717     0.8634564054     -1.1849533388
H       -1.1424315266     -0.8395076110     0.8500154614
H       -2.2585988168     -0.0283362392     -0.2710057218
H       -1.1946365877     0.8613280945     0.8836038054
--------------------------------------------------------------
 ----------------------------------------------------------------
             Standard Nuclear Orientation (Angstroms)
    I     Atom           X                Y                Z
 ----------------------------------------------------------------
    1      C       1.2754203866     0.0228166031     0.1883557228
    2      C      -0.0000000718    -0.0225224337    -0.5467273354
    3      H       1.1424314026    -0.8395076923     0.8500155105
    4      H       1.1946367203     0.8613279351     0.8836039582
    5      H       2.2585986603    -0.0283368723    -0.2710059321
    6      C      -1.2754203279     0.0228166783     0.1883556263
    7      H       0.0000003720    -0.8735342019    -1.2292127375
    8      H      -0.0000002717     0.8634564054    -1.1849533388
    9      H      -1.1424315266    -0.8395076110     0.8500154614
   10      H      -2.2585988168    -0.0283362392    -0.2710057218
   11      H      -1.1946365877     0.8613280945     0.8836038054
 ----------------------------------------------------------------
 Nuclear Repulsion Energy =          84.36152982 hartrees
 There are       13 alpha and       13 beta electrons
 Requested basis set is 6-311+G(2df,2pd)
 There are 72 shells and 214 basis functions

 Total QAlloc Memory Limit   2000 MB
 Mega-Array Size       188 MB
 MEM_STATIC part       192 MB

                       Distance Matrix (Angstroms)
             C (  1)   C (  2)   H (  3)   H (  4)   H (  5)   C (  6)
   C (  2)  1.472787
   H (  3)  1.095026  1.980784
   H (  4)  1.092244  2.062570  1.701968
   H (  5)  1.086402  2.275373  1.777784  1.804617
   C (  6)  2.550841  1.472786  2.650925  2.699565  3.564116
   H (  7)  2.107046  1.090875  2.372656  2.983437  2.594954  2.107046
   H (  8)  2.054106  1.091921  2.889002  2.388743  2.594584  2.054105
   H (  9)  2.650925  1.980784  2.284863  2.890650  3.671743  1.095026
   H ( 10)  3.564116  2.275373  3.671743  3.748261  4.517197  1.086402
   H ( 11)  2.699565  2.062570  2.890650  2.389273  3.748261  1.092244
             H (  7)   H (  8)   H (  9)   H ( 10)
   H (  8)  1.737554
   H (  9)  2.372656  2.889002
   H ( 10)  2.594955  2.594583  1.777784
   H ( 11)  2.983437  2.388742  1.701968  1.804617
 
 A cutoff of  1.0D-09 yielded   2550 shell pairs
 There are     22632 function pairs (     27813 Cartesian)
 Smallest overlap matrix eigenvalue = 8.13E-05

 Scale SEOQF with 1.000000e-01/1.000000e-01/1.000000e-01

 Standard Electronic Orientation quadrupole field applied
 Nucleus-field energy     =     0.0000000007 hartrees
 Requested basis set is 6-31G(d)
 There are 28 shells and 58 basis functions
 A cutoff of  1.0D-09 yielded    402 shell pairs
 There are      1773 function pairs (      1968 Cartesian)
 Smallest overlap matrix eigenvalue = 5.90E-03
 Guess from superposition of atomic densities
 Warning:  Energy on first SCF cycle will be non-variational
 SAD guess density has 26.000000 electrons
 Long-range K will be added via erf
 Coulomb attenuation parameter = 0.2 bohr**(-1)
 A restricted hybrid HF-DFT SCF calculation will be
 performed using Relaxed Constraint Minimization + Pulay DIIS
 Exchange:     0.2220 Hartree-Fock + 1.0000 wB97X-D + LR-HF
 Correlation:  1.0000 wB97X-D
 Using Euler-Maclaurin-Lebedev (75,302) quadrature formula
 Dispersion:   Grimme D
 SCF converges when DIIS error is below 1.0E-04
 using 3 threads for integral computing
 -------------------------------------------------------
 OpenMP Integral computing Module                
 Release: version 1.0, May 2013, Q-Chem Inc. Pittsburgh 
 -------------------------------------------------------
 using 3 threads for integral computing
 -------------------------------------------------------
 OpenMP Integral computing Module                
 Release: version 1.0, May 2013, Q-Chem Inc. Pittsburgh 
 -------------------------------------------------------
 ---------------------------------------
  Cycle       Energy         DIIS Error
 ---------------------------------------
    1    -119.7954628870      1.06E-01
    2    -119.0368056159      9.39E-03
    3    -119.0596926164      2.55E-03
    4    -119.0749123786      1.76E-03
    5    -119.0756675373      2.68E-04 Done RCA. Switching to DIIS
    6    -119.0762336108      2.02E-04
    7    -119.0762511128      4.67E-06 Convergence criterion met
 ---------------------------------------
 SCF time:  CPU 33.57 s  wall 11.60 s
 SCF   energy in the small basis set = -119.07625111
 Total energy in the small basis set = -119.07625111
 ----------------------------------------------------
  Cycle       Energy    
 ----------------------------------------------------
    1     -16.5824300356     -1.66E+01
 Long-range K will be added via erf
 Coulomb attenuation parameter = 0.2 bohr**(-1)
 A restricted hybrid HF-DFT SCF calculation will be
 performed using Relaxed Constraint Minimization + Pulay DIIS
 Exchange:     0.2220 Hartree-Fock + 1.0000 wB97X-D + LR-HF
 Correlation:  1.0000 wB97X-D
 Using Euler-Maclaurin-Lebedev (75,302) quadrature formula
 Dispersion:   Grimme D
 SCF converges when DIIS error is below 1.0E-05
 Basis2 calculation detected. Using small basis as guess for larger.
 SCFMinFind is unable to tell whether the solution found is close.
 Resetting ReadMinima to 0 and attempting to follow guess.
 SCFMinFind following SCF Guess.
 using 3 threads for integral computing
 -------------------------------------------------------
 OpenMP Integral computing Module                
 Release: version 1.0, May 2013, Q-Chem Inc. Pittsburgh 
 -------------------------------------------------------
 using 3 threads for integral computing
 -------------------------------------------------------
 OpenMP Integral computing Module                
 Release: version 1.0, May 2013, Q-Chem Inc. Pittsburgh 
 -------------------------------------------------------
 ---------------------------------------
  Cycle       Energy         DIIS Error
 ---------------------------------------
    1    -119.0967074022      4.21E-03
    2    -119.1188609054      6.15E-04 Done RCA. Switching to DIIS
    3    -119.1197234418      4.38E-04
    4    -119.1207678415      4.71E-05
    5    -119.1207835227      1.28E-05
    6    -119.1207845552      4.17E-06 Convergence criterion met
 ---------------------------------------
 SCF time:  CPU 98.20 s  wall 33.14 s
 SCF   energy in the final basis set = -119.12078456
 Total energy in the final basis set = -119.12078456
 
 --------------------------------------------------------------
 
                    Orbital Energies (a.u.)
 --------------------------------------------------------------
 
 Alpha MOs
 -- Occupied --
-10.2669 -10.2655 -10.2655  -0.9008  -0.7858  -0.6747  -0.5562  -0.5464
 -0.4779  -0.4641  -0.4523  -0.4034  -0.3812
 -- Virtual --
  0.0702   0.0846   0.0921   0.0974   0.1190   0.1293   0.1338   0.1409
  0.1482   0.1714   0.1742   0.1947   0.2113   0.2338   0.2478   0.2670
  0.2692   0.2850   0.3139   0.3293   0.3325   0.3709   0.4507   0.4636
  0.4782   0.5012   0.5046   0.5103   0.5696   0.5702   0.5750   0.5851
  0.6171   0.6320   0.6439   0.6611   0.6620   0.6691   0.7223   0.7225
  0.7256   0.7682   0.8283   0.8310   0.8843   0.8906   0.9140   0.9761
  1.0108   1.0351   1.0460   1.0883   1.1321   1.1566   1.2219   1.2379
  1.2432   1.2876   1.2899   1.3095   1.3143   1.3156   1.3290   1.3559
  1.3628   1.4281   1.4394   1.4480   1.4636   1.4669   1.4684   1.4799
  1.5380   1.5765   1.5797   1.6152   1.6412   1.6517   1.6742   1.6965
  1.8578   2.4073   2.4632   2.5077   2.5258   2.5767   2.5989   2.6023
  2.6340   2.7260   2.7564   2.8308   2.8582   2.9011   2.9397   2.9657
  2.9735   2.9869   3.0179   3.0254   3.0472   3.0661   3.1011   3.1307
  3.1588   3.1656   3.1796   3.1952   3.2205   3.2434   3.2729   3.3166
  3.3271   3.3572   3.3816   3.3845   3.3861   3.3985   3.4189   3.4456
  3.4606   3.4682   3.5325   3.5542   3.5587   3.5606   3.5827   3.5986
  3.6227   3.6573   3.7138   3.7254   3.7279   3.7504   3.7889   3.8902
  3.9013   3.9249   3.9844   4.0095   4.0111   4.0395   4.0618   4.0811
  4.1359   4.1508   4.1530   4.1863   4.2006   4.2314   4.2533   4.2587
  4.2655   4.3233   4.3610   4.4121   4.4144   4.4529   4.4701   4.4981
  4.6181   4.6299   4.6544   4.6631   4.6961   4.7231   4.7719   4.8667
  4.8943   4.9325   4.9449   5.0030   5.0270   5.0768   5.1291   5.1372
  5.1753   5.2249   5.2719   5.2781   5.3209   5.3521   5.3707   5.4395
  5.4407   5.5233   5.5260   5.5764   5.5970   5.7476   5.7884   5.9343
  6.0815   6.3811   6.4023   6.4238   6.4374   6.4994  25.2805  25.4433
 25.5398
 --------------------------------------------------------------
 
 -----------------------------------------------------------------
                    Cartesian Multipole Moments
 -----------------------------------------------------------------
    Charge (ESU x 10^10)
                 0.0000
    Dipole Moment (Debye)
         X      -0.0000      Y      -0.0211      Z      -0.0371
       Tot       0.0426
    Quadrupole Moments (Debye-Ang)
        XX     -21.1217     XY      -0.0000     YY     -21.7681
        XZ      -0.0000     YZ       0.3173     ZZ     -22.5834
    Octopole Moments (Debye-Ang^2)
       XXX      -0.0000    XXY      -0.1322    XYY       0.0000
       YYY      -0.2296    XXZ      -2.1301    XYZ       0.0000
       YYZ       0.6384    XZZ       0.0000    YZZ      -0.0471
       ZZZ       1.1137
    Hexadecapole Moments (Debye-Ang^3)
      XXXX    -184.8939   XXXY      -0.0000   XXYY     -43.0518
      XYYY       0.0000   YYYY     -44.5779   XXXZ      -0.0000
      XXYZ       0.4493   XYYZ      -0.0000   YYYZ      -0.2074
      XXZZ     -45.7903   XYZZ       0.0000   YYZZ     -17.0576
      XZZZ      -0.0000   YZZZ       0.3070   ZZZZ     -68.6572
 -----------------------------------------------------------------
Archival summary:
1\1\cn0821\SP\ProcedureUnspecified\BasisUnspecified\38\r0852400\SunApr1206:32:232020SunApr1206:32:232020\0\\#,ProcedureUnspecified,BasisUnspecified,\\0,1\C\H,1,1.09087\H,1,1.09192,2,105.504\C,1,1.47279,2,109.65,3,113.141,0\H,4,1.0864,1,124.836,2,-50.3396,0\H,4,1.09224,1,106.098,2,177.373,0\H,4,1.09503,1,99.9139,2,71.5106,0\C,1,1.47279,2,109.65,3,-113.141,0\H,8,1.0864,1,124.836,2,50.3395,0\H,8,1.09224,1,106.098,2,-177.373,0\H,8,1.09503,1,99.9139,2,-71.5107,0\\\@

 Total job time:  49.12s(wall), 137.10s(cpu) 
 Sun Apr 12 06:32:23 2020

        *************************************************************
        *                                                           *
        *  Thank you very much for using Q-Chem.  Have a nice day.  *
        *                                                           *
        *************************************************************


