                  Welcome to Q-Chem
     A Quantum Leap Into The Future Of Chemistry


 Q-Chem 5.2 (devel), Q-Chem, Inc., Pleasanton, CA (2019)

 Yihan Shao,  Zhengting Gan,  E. Epifanovsky,  A. T. B. Gilbert,  M. Wormit,  
 J. Kussmann,  A. W. Lange,  A. Behn,  Jia Deng,  Xintian Feng,  D. Ghosh,  
 M. Goldey,  P. R. Horn,  L. D. Jacobson,  I. Kaliman,  T. Kus,  A. Landau,  
 Jie Liu,  E. I. Proynov,  R. M. Richard,  R. P. Steele,  E. J. Sundstrom,  
 H. L. Woodcock III,  P. M. Zimmerman,  D. Zuev,  B. Alam,  B. Albrecht,  
 E. Alguire,  S. A. Baeppler,  D. Barton,  Z. Benda,  Y. A. Bernard,  
 E. J. Berquist,  K. B. Bravaya,  H. Burton,  K. Carter-Fenk,  D. Casanova,  
 Chun-Min Chang,  Yunqing Chen,  A. Chien,  K. D. Closser,  M. P. Coons,  
 S. Coriani,  S. Dasgupta,  A. L. Dempwolff,  M. Diedenhofen,  Hainam Do,  
 R. G. Edgar,  Po-Tung Fang,  S. Faraji,  S. Fatehi,  Qingguo Feng,  
 J. Fosso-Tande,  J. Gayvert,  Qinghui Ge,  A. Ghysels,  G. Gidofalvi,  
 J. Gomes,  J. Gonthier,  A. Gunina,  D. Hait,  M. W. D. Hanson-Heine,  
 P. H. P. Harbach,  A. W. Hauser,  M. F. Herbst,  J. E. Herr,  
 E. G. Hohenstein,  Z. C. Holden,  Kerwin Hui,  B. C. Huynh,  T.-C. Jagau,  
 Hyunjun Ji,  B. Kaduk,  K. Khistyaev,  Jaehoon Kim,  P. Klunzinger,  K. Koh,  
 D. Kosenkov,  L. Koulias,  T. Kowalczyk,  C. M. Krauter,  A. Kunitsa,  
 Ka Un Lao,  A. Laurent,  K. V. Lawler,  Joonho Lee,  D. Lefrancois,  
 S. Lehtola,  D. S. Levine,  Yi-Pei Li,  You-Sheng Lin,  Fenglai Liu,  
 Kuan-Yu Liu,  E. Livshits,  M. Loipersberger,  A. Luenser,  P. Manohar,  
 E. Mansoor,  S. F. Manzer,  Shan-Ping Mao,  Yuezhi Mao,  N. Mardirossian,  
 A. V. Marenich,  T. Markovich,  L. A. Martinez-Martinez,  S. A. Maurer,  
 N. J. Mayhall,  S. C. McKenzie,  J.-M. Mewes,  P. Morgante,  A. F. Morrison,  
 J. W. Mullinax,  K. Nanda,  T. S. Nguyen-Beck,  R. Olivares-Amaya,  
 J. A. Parkhill,  S. K. Paul,  Zheng Pei,  T. M. Perrine,  F. Plasser,  
 P. Pokhilko,  S. Prager,  A. Prociuk,  E. Ramos,  B. Rana,  D. R. Rehn,  
 F. Rob,  M. Scheurer,  M. Schneider,  N. Sergueev,  S. M. Sharada,  
 S. Sharma,  D. W. Small,  T. Stauch,  C. J. Stein,  T. Stein,  Yu-Chuan Su,  
 S. P. Veccham,  A. J. W. Thom,  A. Tkatchenko,  T. Tsuchimochi,  
 N. M. Tubman,  L. Vogt,  M. L. Vidal,  O. Vydrov,  M. A. Watson,  J. Wenzel,  
 M. de Wergifosse,  T. A. Wesolowski,  A. White,  J. Witte,  A. Yamada,  
 Jun Yang,  K. Yao,  S. Yeganeh,  S. R. Yost,  Zhi-Qiang You,  A. Zech,  
 Igor Ying Zhang,  Xing Zhang,  Yan Zhao,  Ying Zhu,  B. R. Brooks,  
 G. K. L. Chan,  C. J. Cramer,  M. S. Gordon,  W. J. Hehre,  A. Klamt,  
 M. W. Schmidt,  C. D. Sherrill,  D. G. Truhlar,  A. Aspuru-Guzik,  R. Baer,  
 A. T. Bell,  N. A. Besley,  Jeng-Da Chai,  A. E. DePrince, III,  
 R. A. DiStasio Jr.,  A. Dreuw,  B. D. Dunietz,  T. R. Furlani,  
 Chao-Ping Hsu,  Yousung Jung,  Jing Kong,  D. S. Lambrecht,  WanZhen Liang,  
 C. Ochsenfeld,  V. A. Rassolov,  L. V. Slipchenko,  J. E. Subotnik,  
 T. Van Voorhis,  J. M. Herbert,  A. I. Krylov,  P. M. W. Gill,  M. Head-Gordon

 Contributors to earlier versions of Q-Chem not listed above: 
 R. D. Adamson,  B. Austin,  J. Baker,  G. J. O. Beran,  K. Brandhorst,  
 S. T. Brown,  E. F. C. Byrd,  A. K. Chakraborty,  C.-L. Cheng,  
 Siu Hung Chien,  D. M. Chipman,  D. L. Crittenden,  H. Dachsel,  
 R. J. Doerksen,  A. D. Dutoi,  L. Fusti-Molnar,  W. A. Goddard III,  
 A. Golubeva-Zadorozhnaya,  S. R. Gwaltney,  G. Hawkins,  A. Heyden,  
 S. Hirata,  G. Kedziora,  F. J. Keil,  C. Kelley,  Jihan Kim,  R. A. King,  
 R. Z. Khaliullin,  P. P. Korambath,  W. Kurlancheek,  A. M. Lee,  M. S. Lee,  
 S. V. Levchenko,  Ching Yeh Lin,  D. Liotard,  R. C. Lochan,  I. Lotan,  
 P. E. Maslen,  N. Nair,  D. P. O'Neill,  D. Neuhauser,  E. Neuscamman,  
 C. M. Oana,  R. Olson,  B. Peters,  R. Peverati,  P. A. Pieniazek,  
 Y. M. Rhee,  J. Ritchie,  M. A. Rohrdanz,  E. Rosta,  N. J. Russ,  
 H. F. Schaefer III,  N. E. Schultz,  N. Shenvi,  A. C. Simmonett,  A. Sodt,  
 D. Stuck,  K. S. Thanthiriwatte,  V. Vanovschi,  Tao Wang,  A. Warshel,  
 C. F. Williams,  Q. Wu,  X. Xu,  W. Zhang

 Please cite Q-Chem as follows:
 Y. Shao et al., Mol. Phys. 113, 184-215 (2015)
 DOI: 10.1080/00268976.2014.952696

 Q-Chem 5.2.2 for Intel X86 EM64T Linux

 Parts of Q-Chem use Armadillo 9.800.1 (Horizon Scraper).
 http://arma.sourceforge.net/

 Q-Chem begins on Sun Apr 12 05:39:40 2020  

Host: cn0821
0

     Scratch files written to /tmp/ypli/6721342.srvc1/qchem170815//
Warning:  Did not find "$end" marker in "$molecule" section

Checking the input file for inconsistencies... 	...done.

--------------------------------------------------------------
User input:
--------------------------------------------------------------
$rem
   JOBTYPE  sp
   EXCHANGE   omegaB97X-D
   BASIS   6-311+G(2df,2pd)
   max_scf_cycles   250
   geom_opt_max_cycles   1500
   basis2 6-31G*
   scf_algorithm rca_diis
   SYM_IGNORE  TRUE
   print_input   true
   geom_opt_dmax   80
   pop_mulliken false
   XC_GRID 000075000302
$end

$molecule
0 1
C       1.2670582155     -0.0246012325     0.2583989787
C       0.0000000080     -0.0439298014     -0.5895249754
H       1.3478796609     -0.8676366183     0.9465095414
H       1.2551530646     0.8870024935     0.8607496249
H       2.1652143861     0.0076734061     -0.3589292405
C       -1.2670581557     -0.0246012121     0.2583990682
H       0.0000000510     -0.8510404213     -1.3244176328
H       -0.0000001664     0.8900939438     -1.1584702479
H       -1.3478797076     -0.8676365770     0.9465095978
H       -2.1652142555     0.0076740266     -0.3589292288
H       -1.2551531614     0.8870026587     0.8607495332
--------------------------------------------------------------
 ----------------------------------------------------------------
             Standard Nuclear Orientation (Angstroms)
    I     Atom           X                Y                Z
 ----------------------------------------------------------------
    1      C       1.2670582155    -0.0246012325     0.2583989787
    2      C       0.0000000080    -0.0439298014    -0.5895249754
    3      H       1.3478796609    -0.8676366183     0.9465095414
    4      H       1.2551530646     0.8870024935     0.8607496249
    5      H       2.1652143861     0.0076734061    -0.3589292405
    6      C      -1.2670581557    -0.0246012121     0.2583990682
    7      H       0.0000000510    -0.8510404213    -1.3244176328
    8      H      -0.0000001664     0.8900939438    -1.1584702479
    9      H      -1.3478797076    -0.8676365770     0.9465095978
   10      H      -2.1652142555     0.0076740266    -0.3589292288
   11      H      -1.2551531614     0.8870026587     0.8607495332
 ----------------------------------------------------------------
 Nuclear Repulsion Energy =          82.74305607 hartrees
 There are       13 alpha and       13 beta electrons
 Requested basis set is 6-311+G(2df,2pd)
 There are 72 shells and 214 basis functions

 Total QAlloc Memory Limit   2000 MB
 Mega-Array Size       188 MB
 MEM_STATIC part       192 MB

                       Distance Matrix (Angstroms)
             C (  1)   C (  2)   H (  3)   H (  4)   H (  5)   C (  6)
   C (  2)  1.524725
   H (  3)  1.091209  2.203333
   H (  4)  1.092698  2.131980  1.759179
   H (  5)  1.090330  2.178070  1.771546  1.757569
   C (  6)  2.534116  1.524725  2.832332  2.748708  3.487496
   H (  7)  2.189463  1.091556  2.640864  3.061235  2.521450  2.189463
   H (  8)  2.109413  1.093663  3.055706  2.377534  2.471050  2.109413
   H (  9)  2.832332  2.203333  2.695759  3.140365  3.848658  1.091209
   H ( 10)  3.487496  2.178070  3.848658  3.736275  4.330429  1.090330
   H ( 11)  2.748708  2.131981  3.140365  2.510306  3.736275  1.092698
             H (  7)   H (  8)   H (  9)   H ( 10)
   H (  8)  1.749025
   H (  9)  2.640865  3.055705
   H ( 10)  2.521450  2.471049  1.771546
   H ( 11)  3.061235  2.377534  1.759179  1.757568
 
 A cutoff of  1.0D-09 yielded   2532 shell pairs
 There are     22578 function pairs (     27759 Cartesian)
 Smallest overlap matrix eigenvalue = 8.76E-05

 Scale SEOQF with 1.000000e-01/1.000000e-01/1.000000e-01

 Standard Electronic Orientation quadrupole field applied
 Nucleus-field energy     =     0.0000000006 hartrees
 Requested basis set is 6-31G(d)
 There are 28 shells and 58 basis functions
 A cutoff of  1.0D-09 yielded    402 shell pairs
 There are      1773 function pairs (      1968 Cartesian)
 Smallest overlap matrix eigenvalue = 6.74E-03
 Guess from superposition of atomic densities
 Warning:  Energy on first SCF cycle will be non-variational
 SAD guess density has 26.000000 electrons
 Long-range K will be added via erf
 Coulomb attenuation parameter = 0.2 bohr**(-1)
 A restricted hybrid HF-DFT SCF calculation will be
 performed using Relaxed Constraint Minimization + Pulay DIIS
 Exchange:     0.2220 Hartree-Fock + 1.0000 wB97X-D + LR-HF
 Correlation:  1.0000 wB97X-D
 Using Euler-Maclaurin-Lebedev (75,302) quadrature formula
 Dispersion:   Grimme D
 SCF converges when DIIS error is below 1.0E-04
 using 3 threads for integral computing
 -------------------------------------------------------
 OpenMP Integral computing Module                
 Release: version 1.0, May 2013, Q-Chem Inc. Pittsburgh 
 -------------------------------------------------------
 using 3 threads for integral computing
 -------------------------------------------------------
 OpenMP Integral computing Module                
 Release: version 1.0, May 2013, Q-Chem Inc. Pittsburgh 
 -------------------------------------------------------
 ---------------------------------------
  Cycle       Energy         DIIS Error
 ---------------------------------------
    1    -119.6194542976      1.00E-01
    2    -119.0652884775      8.99E-03
    3    -119.0863149031      2.47E-03
    4    -119.1001320342      1.69E-03
    5    -119.1008326353      2.68E-04 Done RCA. Switching to DIIS
    6    -119.1013453566      1.98E-04
    7    -119.1013623887      4.51E-06 Convergence criterion met
 ---------------------------------------
 SCF time:  CPU 33.00 s  wall 11.40 s
 SCF   energy in the small basis set = -119.10136239
 Total energy in the small basis set = -119.10136239
 ----------------------------------------------------
  Cycle       Energy    
 ----------------------------------------------------
    1     -16.5391171649     -1.65E+01
 Long-range K will be added via erf
 Coulomb attenuation parameter = 0.2 bohr**(-1)
 A restricted hybrid HF-DFT SCF calculation will be
 performed using Relaxed Constraint Minimization + Pulay DIIS
 Exchange:     0.2220 Hartree-Fock + 1.0000 wB97X-D + LR-HF
 Correlation:  1.0000 wB97X-D
 Using Euler-Maclaurin-Lebedev (75,302) quadrature formula
 Dispersion:   Grimme D
 SCF converges when DIIS error is below 1.0E-05
 Basis2 calculation detected. Using small basis as guess for larger.
 SCFMinFind is unable to tell whether the solution found is close.
 Resetting ReadMinima to 0 and attempting to follow guess.
 SCFMinFind following SCF Guess.
 using 3 threads for integral computing
 -------------------------------------------------------
 OpenMP Integral computing Module                
 Release: version 1.0, May 2013, Q-Chem Inc. Pittsburgh 
 -------------------------------------------------------
 using 3 threads for integral computing
 -------------------------------------------------------
 OpenMP Integral computing Module                
 Release: version 1.0, May 2013, Q-Chem Inc. Pittsburgh 
 -------------------------------------------------------
 ---------------------------------------
  Cycle       Energy         DIIS Error
 ---------------------------------------
    1    -119.1204738278      4.21E-03
    2    -119.1425160745      5.97E-04 Done RCA. Switching to DIIS
    3    -119.1433498814      4.18E-04
    4    -119.1443077810      4.55E-05
    5    -119.1443224886      1.01E-05
    6    -119.1443231729      3.88E-06 Convergence criterion met
 ---------------------------------------
 SCF time:  CPU 97.76 s  wall 33.08 s
 SCF   energy in the final basis set = -119.14432317
 Total energy in the final basis set = -119.14432317
 
 --------------------------------------------------------------
 
                    Orbital Energies (a.u.)
 --------------------------------------------------------------
 
 Alpha MOs
 -- Occupied --
-10.2743 -10.2653 -10.2653  -0.8816  -0.7771  -0.6777  -0.5464  -0.5240
 -0.4836  -0.4622  -0.4188  -0.4185  -0.4063
 -- Virtual --
  0.0691   0.0859   0.0908   0.0987   0.1250   0.1298   0.1335   0.1411
  0.1438   0.1710   0.1720   0.1914   0.2317   0.2421   0.2441   0.2640
  0.2824   0.2847   0.3103   0.3128   0.3333   0.3500   0.4584   0.4673
  0.4707   0.5087   0.5127   0.5175   0.5445   0.5633   0.5846   0.5876
  0.6192   0.6255   0.6429   0.6436   0.6559   0.6582   0.7095   0.7253
  0.7264   0.7672   0.8197   0.8573   0.8675   0.8791   0.8912   0.9618
  1.0042   1.0425   1.0683   1.1350   1.1385   1.1805   1.1819   1.2173
  1.2194   1.2406   1.2595   1.2812   1.2902   1.3024   1.3269   1.3750
  1.3831   1.3966   1.4053   1.4488   1.4540   1.4630   1.4846   1.4949
  1.5253   1.5779   1.6073   1.6258   1.6351   1.6405   1.6766   1.6971
  1.7477   2.3770   2.4529   2.4780   2.5024   2.5683   2.5690   2.5904
  2.6395   2.7133   2.8006   2.8293   2.8587   2.9056   2.9252   2.9295
  2.9427   2.9450   3.0035   3.0136   3.0597   3.0608   3.0879   3.0988
  3.1289   3.1417   3.1823   3.1946   3.2089   3.2204   3.2747   3.3081
  3.3267   3.3282   3.3394   3.3577   3.3644   3.3816   3.4086   3.4392
  3.4749   3.4807   3.4929   3.5254   3.5633   3.5809   3.5966   3.6181
  3.6329   3.6766   3.6780   3.6863   3.7972   3.8037   3.8623   3.8919
  3.9229   3.9395   3.9562   3.9619   3.9775   3.9896   4.0414   4.0635
  4.0808   4.0979   4.1127   4.1449   4.1591   4.1761   4.1932   4.2004
  4.2219   4.2548   4.2552   4.3650   4.3940   4.4014   4.4243   4.4295
  4.4443   4.5722   4.5960   4.6133   4.6805   4.8032   4.8277   4.8993
  4.9428   4.9447   4.9604   4.9641   5.0205   5.0460   5.0724   5.1125
  5.1274   5.2356   5.2538   5.2696   5.2978   5.3525   5.3624   5.3702
  5.3753   5.3905   5.4701   5.4963   5.5527   5.5616   5.6445   5.7453
  5.9556   6.3836   6.3869   6.3945   6.4175   6.4681  25.1985  25.4424
 25.4540
 --------------------------------------------------------------
 
 -----------------------------------------------------------------
                    Cartesian Multipole Moments
 -----------------------------------------------------------------
    Charge (ESU x 10^10)
                -0.0000
    Dipole Moment (Debye)
         X      -0.0000      Y       0.0597      Z      -0.0841
       Tot       0.1031
    Quadrupole Moments (Debye-Ang)
        XX     -22.1617     XY      -0.0000     YY     -21.3959
        XZ      -0.0000     YZ      -0.0336     ZZ     -21.8291
    Octopole Moments (Debye-Ang^2)
       XXX       0.0000    XXY       0.3107    XYY      -0.0000
       YYY       1.4518    XXZ      -1.5234    XYZ       0.0000
       YYZ       0.5002    XZZ      -0.0000    YZZ      -0.0238
       ZZZ      -0.3488
    Hexadecapole Moments (Debye-Ang^3)
      XXXX    -201.9416   XXXY      -0.0000   XXYY     -42.2586
      XYYY       0.0000   YYYY     -44.1293   XXXZ      -0.0000
      XXYZ      -0.5329   XYYZ       0.0000   YYYZ      -0.2018
      XXZZ     -45.2559   XYZZ       0.0000   YYZZ     -17.1396
      XZZZ       0.0000   YZZZ       0.0246   ZZZZ     -72.1102
 -----------------------------------------------------------------
Archival summary:
1\1\cn0821\SP\ProcedureUnspecified\BasisUnspecified\38\r0852400\SunApr1205:40:292020SunApr1205:40:292020\0\\#,ProcedureUnspecified,BasisUnspecified,\\0,1\C\H,1,1.09156\H,1,1.09366,2,106.334\C,1,1.52472,2,112.568,3,-115.853,0\H,4,1.09033,1,111.719,2,54.2414,0\H,4,1.09121,1,113.731,2,-69.1305,0\H,4,1.0927,1,107.944,2,171.909,0\C,1,1.52472,2,112.568,3,115.852,0\H,8,1.09033,1,111.719,2,-54.2414,0\H,8,1.09121,1,113.731,2,69.1305,0\H,8,1.0927,1,107.944,2,-171.909,0\\\@

 Total job time:  48.75s(wall), 136.01s(cpu) 
 Sun Apr 12 05:40:29 2020

        *************************************************************
        *                                                           *
        *  Thank you very much for using Q-Chem.  Have a nice day.  *
        *                                                           *
        *************************************************************


