                  Welcome to Q-Chem
     A Quantum Leap Into The Future Of Chemistry


 Q-Chem 5.2 (devel), Q-Chem, Inc., Pleasanton, CA (2019)

 Yihan Shao,  Zhengting Gan,  E. Epifanovsky,  A. T. B. Gilbert,  M. Wormit,  
 J. Kussmann,  A. W. Lange,  A. Behn,  Jia Deng,  Xintian Feng,  D. Ghosh,  
 M. Goldey,  P. R. Horn,  L. D. Jacobson,  I. Kaliman,  T. Kus,  A. Landau,  
 Jie Liu,  E. I. Proynov,  R. M. Richard,  R. P. Steele,  E. J. Sundstrom,  
 H. L. Woodcock III,  P. M. Zimmerman,  D. Zuev,  B. Alam,  B. Albrecht,  
 E. Alguire,  S. A. Baeppler,  D. Barton,  Z. Benda,  Y. A. Bernard,  
 E. J. Berquist,  K. B. Bravaya,  H. Burton,  K. Carter-Fenk,  D. Casanova,  
 Chun-Min Chang,  Yunqing Chen,  A. Chien,  K. D. Closser,  M. P. Coons,  
 S. Coriani,  S. Dasgupta,  A. L. Dempwolff,  M. Diedenhofen,  Hainam Do,  
 R. G. Edgar,  Po-Tung Fang,  S. Faraji,  S. Fatehi,  Qingguo Feng,  
 J. Fosso-Tande,  J. Gayvert,  Qinghui Ge,  A. Ghysels,  G. Gidofalvi,  
 J. Gomes,  J. Gonthier,  A. Gunina,  D. Hait,  M. W. D. Hanson-Heine,  
 P. H. P. Harbach,  A. W. Hauser,  M. F. Herbst,  J. E. Herr,  
 E. G. Hohenstein,  Z. C. Holden,  Kerwin Hui,  B. C. Huynh,  T.-C. Jagau,  
 Hyunjun Ji,  B. Kaduk,  K. Khistyaev,  Jaehoon Kim,  P. Klunzinger,  K. Koh,  
 D. Kosenkov,  L. Koulias,  T. Kowalczyk,  C. M. Krauter,  A. Kunitsa,  
 Ka Un Lao,  A. Laurent,  K. V. Lawler,  Joonho Lee,  D. Lefrancois,  
 S. Lehtola,  D. S. Levine,  Yi-Pei Li,  You-Sheng Lin,  Fenglai Liu,  
 Kuan-Yu Liu,  E. Livshits,  M. Loipersberger,  A. Luenser,  P. Manohar,  
 E. Mansoor,  S. F. Manzer,  Shan-Ping Mao,  Yuezhi Mao,  N. Mardirossian,  
 A. V. Marenich,  T. Markovich,  L. A. Martinez-Martinez,  S. A. Maurer,  
 N. J. Mayhall,  S. C. McKenzie,  J.-M. Mewes,  P. Morgante,  A. F. Morrison,  
 J. W. Mullinax,  K. Nanda,  T. S. Nguyen-Beck,  R. Olivares-Amaya,  
 J. A. Parkhill,  S. K. Paul,  Zheng Pei,  T. M. Perrine,  F. Plasser,  
 P. Pokhilko,  S. Prager,  A. Prociuk,  E. Ramos,  B. Rana,  D. R. Rehn,  
 F. Rob,  M. Scheurer,  M. Schneider,  N. Sergueev,  S. M. Sharada,  
 S. Sharma,  D. W. Small,  T. Stauch,  C. J. Stein,  T. Stein,  Yu-Chuan Su,  
 S. P. Veccham,  A. J. W. Thom,  A. Tkatchenko,  T. Tsuchimochi,  
 N. M. Tubman,  L. Vogt,  M. L. Vidal,  O. Vydrov,  M. A. Watson,  J. Wenzel,  
 M. de Wergifosse,  T. A. Wesolowski,  A. White,  J. Witte,  A. Yamada,  
 Jun Yang,  K. Yao,  S. Yeganeh,  S. R. Yost,  Zhi-Qiang You,  A. Zech,  
 Igor Ying Zhang,  Xing Zhang,  Yan Zhao,  Ying Zhu,  B. R. Brooks,  
 G. K. L. Chan,  C. J. Cramer,  M. S. Gordon,  W. J. Hehre,  A. Klamt,  
 M. W. Schmidt,  C. D. Sherrill,  D. G. Truhlar,  A. Aspuru-Guzik,  R. Baer,  
 A. T. Bell,  N. A. Besley,  Jeng-Da Chai,  A. E. DePrince, III,  
 R. A. DiStasio Jr.,  A. Dreuw,  B. D. Dunietz,  T. R. Furlani,  
 Chao-Ping Hsu,  Yousung Jung,  Jing Kong,  D. S. Lambrecht,  WanZhen Liang,  
 C. Ochsenfeld,  V. A. Rassolov,  L. V. Slipchenko,  J. E. Subotnik,  
 T. Van Voorhis,  J. M. Herbert,  A. I. Krylov,  P. M. W. Gill,  M. Head-Gordon

 Contributors to earlier versions of Q-Chem not listed above: 
 R. D. Adamson,  B. Austin,  J. Baker,  G. J. O. Beran,  K. Brandhorst,  
 S. T. Brown,  E. F. C. Byrd,  A. K. Chakraborty,  C.-L. Cheng,  
 Siu Hung Chien,  D. M. Chipman,  D. L. Crittenden,  H. Dachsel,  
 R. J. Doerksen,  A. D. Dutoi,  L. Fusti-Molnar,  W. A. Goddard III,  
 A. Golubeva-Zadorozhnaya,  S. R. Gwaltney,  G. Hawkins,  A. Heyden,  
 S. Hirata,  G. Kedziora,  F. J. Keil,  C. Kelley,  Jihan Kim,  R. A. King,  
 R. Z. Khaliullin,  P. P. Korambath,  W. Kurlancheek,  A. M. Lee,  M. S. Lee,  
 S. V. Levchenko,  Ching Yeh Lin,  D. Liotard,  R. C. Lochan,  I. Lotan,  
 P. E. Maslen,  N. Nair,  D. P. O'Neill,  D. Neuhauser,  E. Neuscamman,  
 C. M. Oana,  R. Olson,  B. Peters,  R. Peverati,  P. A. Pieniazek,  
 Y. M. Rhee,  J. Ritchie,  M. A. Rohrdanz,  E. Rosta,  N. J. Russ,  
 H. F. Schaefer III,  N. E. Schultz,  N. Shenvi,  A. C. Simmonett,  A. Sodt,  
 D. Stuck,  K. S. Thanthiriwatte,  V. Vanovschi,  Tao Wang,  A. Warshel,  
 C. F. Williams,  Q. Wu,  X. Xu,  W. Zhang

 Please cite Q-Chem as follows:
 Y. Shao et al., Mol. Phys. 113, 184-215 (2015)
 DOI: 10.1080/00268976.2014.952696

 Q-Chem 5.2.2 for Intel X86 EM64T Linux

 Parts of Q-Chem use Armadillo 9.800.1 (Horizon Scraper).
 http://arma.sourceforge.net/

 Q-Chem begins on Sun Apr 12 08:30:30 2020  

Host: cn0821
0

     Scratch files written to /tmp/ypli/6721342.srvc1/qchem196838//
Warning:  Did not find "$end" marker in "$molecule" section

Checking the input file for inconsistencies... 	...done.

--------------------------------------------------------------
User input:
--------------------------------------------------------------
$rem
   JOBTYPE  sp
   EXCHANGE   omegaB97X-D
   BASIS   6-311+G(2df,2pd)
   max_scf_cycles   250
   geom_opt_max_cycles   1500
   basis2 6-31G*
   scf_algorithm rca_diis
   SYM_IGNORE  TRUE
   print_input   true
   geom_opt_dmax   80
   pop_mulliken false
   XC_GRID 000075000302
$end

$molecule
0 1
C       1.2669170489     -0.0428600236     0.2608409356
C       0.0000009642     -0.0404001294     -0.5861409052
H       1.3022038214     -0.8409865205     0.8512125913
H       1.3079553359     0.9176848961     0.9554761053
H       2.1683005404     -0.0336253567     -0.3616047981
C       -1.2669105631     -0.0428611000     0.2608475471
H       0.0000002635     -0.8547674557     -1.2028648610
H       -0.0000004212     0.8947396736     -1.2817888451
H       -1.3021960245     -0.8409736303     0.8512074374
H       -2.1683223117     -0.0336257967     -0.3616149830
H       -1.3079487144     0.9176761093     0.9554747947
--------------------------------------------------------------
 ----------------------------------------------------------------
             Standard Nuclear Orientation (Angstroms)
    I     Atom           X                Y                Z
 ----------------------------------------------------------------
    1      C       1.2669170489    -0.0428600236     0.2608409356
    2      C       0.0000009642    -0.0404001294    -0.5861409052
    3      H       1.3022038214    -0.8409865205     0.8512125913
    4      H       1.3079553359     0.9176848961     0.9554761053
    5      H       2.1683005404    -0.0336253567    -0.3616047981
    6      C      -1.2669105631    -0.0428611000     0.2608475471
    7      H       0.0000002635    -0.8547674557    -1.2028648610
    8      H      -0.0000004212     0.8947396736    -1.2817888451
    9      H      -1.3021960245    -0.8409736303     0.8512074374
   10      H      -2.1683223117    -0.0336257967    -0.3616149830
   11      H      -1.3079487144     0.9176761093     0.9554747947
 ----------------------------------------------------------------
 Nuclear Repulsion Energy =          82.84291700 hartrees
 There are       13 alpha and       13 beta electrons
 Requested basis set is 6-311+G(2df,2pd)
 There are 72 shells and 214 basis functions

 Total QAlloc Memory Limit   2000 MB
 Mega-Array Size       188 MB
 MEM_STATIC part       192 MB

                       Distance Matrix (Angstroms)
             C (  1)   C (  2)   H (  3)   H (  4)   H (  5)   C (  6)
   C (  2)  1.523962
   H (  3)  0.993373  2.098251
   H (  4)  1.186107  2.237243  1.761769
   H (  5)  1.095452  2.179905  1.694958  1.838447
   C (  6)  2.533828  1.523962  2.754248  2.834624  3.491161
   H (  7)  2.099216  1.021539  2.432110  3.083954  2.466479  2.099216
   H (  8)  2.205421  1.165510  3.042725  2.591646  2.531823  2.205421
   H (  9)  2.754244  2.098239  2.604400  3.149070  3.763917  0.993355
   H ( 10)  3.491190  2.179927  3.763952  3.837216  4.336623  1.095485
   H ( 11)  2.834622  2.237235  3.149073  2.615904  3.837184  1.186096
             H (  7)   H (  8)   H (  9)   H ( 10)
   H (  8)  1.751286
   H (  9)  2.432102  3.042711
   H ( 10)  2.466495  2.531838  1.694970
   H ( 11)  3.083945  2.591641  1.761747  1.838462
 
 A cutoff of  1.0D-09 yielded   2532 shell pairs
 There are     22578 function pairs (     27759 Cartesian)
 Smallest overlap matrix eigenvalue = 8.67E-05

 Scale SEOQF with 1.000000e-01/1.000000e-01/1.000000e-01

 Standard Electronic Orientation quadrupole field applied
 Nucleus-field energy     =     0.0000000006 hartrees
 Requested basis set is 6-31G(d)
 There are 28 shells and 58 basis functions
 A cutoff of  1.0D-09 yielded    402 shell pairs
 There are      1773 function pairs (      1968 Cartesian)
 Smallest overlap matrix eigenvalue = 6.75E-03
 Guess from superposition of atomic densities
 Warning:  Energy on first SCF cycle will be non-variational
 SAD guess density has 26.000000 electrons
 Long-range K will be added via erf
 Coulomb attenuation parameter = 0.2 bohr**(-1)
 A restricted hybrid HF-DFT SCF calculation will be
 performed using Relaxed Constraint Minimization + Pulay DIIS
 Exchange:     0.2220 Hartree-Fock + 1.0000 wB97X-D + LR-HF
 Correlation:  1.0000 wB97X-D
 Using Euler-Maclaurin-Lebedev (75,302) quadrature formula
 Dispersion:   Grimme D
 SCF converges when DIIS error is below 1.0E-04
 using 3 threads for integral computing
 -------------------------------------------------------
 OpenMP Integral computing Module                
 Release: version 1.0, May 2013, Q-Chem Inc. Pittsburgh 
 -------------------------------------------------------
 using 3 threads for integral computing
 -------------------------------------------------------
 OpenMP Integral computing Module                
 Release: version 1.0, May 2013, Q-Chem Inc. Pittsburgh 
 -------------------------------------------------------
 ---------------------------------------
  Cycle       Energy         DIIS Error
 ---------------------------------------
    1    -119.6133841409      1.01E-01
    2    -119.0342717401      9.23E-03
    3    -119.0565137590      2.47E-03
    4    -119.0714775353      1.68E-03
    5    -119.0721735990      2.61E-04 Done RCA. Switching to DIIS
    6    -119.0726903646      1.92E-04
    7    -119.0727065679      4.70E-06 Convergence criterion met
 ---------------------------------------
 SCF time:  CPU 33.03 s  wall 11.40 s
 SCF   energy in the small basis set = -119.07270657
 Total energy in the small basis set = -119.07270657
 ----------------------------------------------------
  Cycle       Energy    
 ----------------------------------------------------
    1     -16.5501919579     -1.66E+01
 Long-range K will be added via erf
 Coulomb attenuation parameter = 0.2 bohr**(-1)
 A restricted hybrid HF-DFT SCF calculation will be
 performed using Relaxed Constraint Minimization + Pulay DIIS
 Exchange:     0.2220 Hartree-Fock + 1.0000 wB97X-D + LR-HF
 Correlation:  1.0000 wB97X-D
 Using Euler-Maclaurin-Lebedev (75,302) quadrature formula
 Dispersion:   Grimme D
 SCF converges when DIIS error is below 1.0E-05
 Basis2 calculation detected. Using small basis as guess for larger.
 SCFMinFind is unable to tell whether the solution found is close.
 Resetting ReadMinima to 0 and attempting to follow guess.
 SCFMinFind following SCF Guess.
 using 3 threads for integral computing
 -------------------------------------------------------
 OpenMP Integral computing Module                
 Release: version 1.0, May 2013, Q-Chem Inc. Pittsburgh 
 -------------------------------------------------------
 using 3 threads for integral computing
 -------------------------------------------------------
 OpenMP Integral computing Module                
 Release: version 1.0, May 2013, Q-Chem Inc. Pittsburgh 
 -------------------------------------------------------
 ---------------------------------------
  Cycle       Energy         DIIS Error
 ---------------------------------------
    1    -119.0930695260      4.21E-03
    2    -119.1150647637      5.89E-04 Done RCA. Switching to DIIS
    3    -119.1158705843      4.14E-04
    4    -119.1168143631      4.60E-05
    5    -119.1168294176      9.98E-06 Convergence criterion met
 ---------------------------------------
 SCF time:  CPU 85.95 s  wall 29.08 s
 SCF   energy in the final basis set = -119.11682942
 Total energy in the final basis set = -119.11682942
 
 --------------------------------------------------------------
 
                    Orbital Energies (a.u.)
 --------------------------------------------------------------
 
 Alpha MOs
 -- Occupied --
-10.2746 -10.2645 -10.2645  -0.8837  -0.7805  -0.6820  -0.5472  -0.5244
 -0.4939  -0.4540  -0.4184  -0.4175  -0.4064
 -- Virtual --
  0.0683   0.0857   0.0908   0.0988   0.1248   0.1294   0.1338   0.1415
  0.1428   0.1702   0.1711   0.1899   0.2269   0.2382   0.2394   0.2639
  0.2832   0.2851   0.3116   0.3149   0.3345   0.3524   0.4551   0.4694
  0.4709   0.5092   0.5158   0.5165   0.5457   0.5603   0.5805   0.5827
  0.6230   0.6254   0.6372   0.6423   0.6568   0.6589   0.7215   0.7286
  0.7376   0.7665   0.8226   0.8592   0.8718   0.8759   0.8849   0.9574
  0.9990   1.0510   1.0582   1.1346   1.1406   1.1801   1.1819   1.2150
  1.2243   1.2411   1.2590   1.2759   1.2887   1.2939   1.3272   1.3700
  1.3876   1.3922   1.3957   1.4362   1.4569   1.4630   1.4709   1.4848
  1.5325   1.5841   1.5968   1.6191   1.6355   1.6776   1.6891   1.7209
  1.7584   2.3556   2.4391   2.4670   2.5039   2.5605   2.5737   2.5792
  2.6635   2.7197   2.8193   2.8296   2.8316   2.9038   2.9172   2.9184
  2.9343   2.9399   2.9965   3.0161   3.0456   3.0622   3.0889   3.1069
  3.1127   3.1549   3.1679   3.1840   3.2239   3.2375   3.2771   3.2813
  3.3253   3.3312   3.3406   3.3445   3.3525   3.3848   3.4164   3.4176
  3.4473   3.4885   3.5095   3.5143   3.5460   3.5829   3.5863   3.6006
  3.6150   3.6782   3.6908   3.7032   3.7699   3.7757   3.8765   3.8850
  3.9010   3.9384   3.9461   3.9495   3.9650   4.0091   4.0333   4.0614
  4.0848   4.0934   4.1345   4.1408   4.1467   4.1567   4.2052   4.2155
  4.2217   4.2548   4.2698   4.3626   4.3673   4.3923   4.4096   4.4344
  4.4447   4.5653   4.5883   4.5924   4.6502   4.7622   4.8173   4.8430
  4.8747   4.8753   4.9661   4.9813   5.0225   5.0354   5.0434   5.1310
  5.1576   5.2140   5.2731   5.2744   5.3165   5.4002   5.4203   5.4448
  5.5014   5.5026   5.5459   5.5499   5.5854   5.6546   5.7272   5.7754
  5.9270   6.2627   6.2652   6.4705   6.5239   6.5405  25.1768  25.4083
 25.4174
 --------------------------------------------------------------
 
 -----------------------------------------------------------------
                    Cartesian Multipole Moments
 -----------------------------------------------------------------
    Charge (ESU x 10^10)
                 0.0000
    Dipole Moment (Debye)
         X       0.0000      Y      -0.3007      Z      -0.0946
       Tot       0.3153
    Quadrupole Moments (Debye-Ang)
        XX     -22.1707     XY      -0.0000     YY     -21.3426
        XZ      -0.0000     YZ       0.0060     ZZ     -21.8758
    Octopole Moments (Debye-Ang^2)
       XXX       0.0001    XXY      -0.3460    XYY       0.0000
       YYY       0.3720    XXZ      -1.6185    XYZ      -0.0000
       YYZ       0.4679    XZZ      -0.0000    YZZ       0.0887
       ZZZ      -0.4718
    Hexadecapole Moments (Debye-Ang^3)
      XXXX    -202.4974   XXXY      -0.0000   XXYY     -42.3028
      XYYY      -0.0000   YYYY     -44.2986   XXXZ      -0.0002
      XXYZ      -0.4918   XYYZ      -0.0001   YYYZ      -0.7982
      XXZZ     -45.4556   XYZZ      -0.0000   YYZZ     -17.1330
      XZZZ      -0.0002   YZZZ      -0.8707   ZZZZ     -72.6107
 -----------------------------------------------------------------
Archival summary:
1\1\cn0821\SP\ProcedureUnspecified\BasisUnspecified\38\r0852400\SunApr1208:31:142020SunApr1208:31:142020\0\\#,ProcedureUnspecified,BasisUnspecified,\\0,1\C\H,1,1.02154\H,1,1.16551,2,106.218\C,1,1.52396,2,109.527,3,118.108,0\H,4,0.993355,1,111.17,2,62.7497,0\H,4,1.09549,1,111.607,2,-58.3804,0\H,4,1.1861,1,110.667,2,-177.811,0\C,1,1.52396,2,109.527,3,-118.108,0\H,8,0.993373,1,111.17,2,-62.7499,0\H,8,1.09545,1,111.607,2,58.3803,0\H,8,1.18611,1,110.667,2,177.811,0\\\@

 Total job time:  44.74s(wall), 124.19s(cpu) 
 Sun Apr 12 08:31:14 2020

        *************************************************************
        *                                                           *
        *  Thank you very much for using Q-Chem.  Have a nice day.  *
        *                                                           *
        *************************************************************


