                  Welcome to Q-Chem
     A Quantum Leap Into The Future Of Chemistry


 Q-Chem 5.2 (devel), Q-Chem, Inc., Pleasanton, CA (2019)

 Yihan Shao,  Zhengting Gan,  E. Epifanovsky,  A. T. B. Gilbert,  M. Wormit,  
 J. Kussmann,  A. W. Lange,  A. Behn,  Jia Deng,  Xintian Feng,  D. Ghosh,  
 M. Goldey,  P. R. Horn,  L. D. Jacobson,  I. Kaliman,  T. Kus,  A. Landau,  
 Jie Liu,  E. I. Proynov,  R. M. Richard,  R. P. Steele,  E. J. Sundstrom,  
 H. L. Woodcock III,  P. M. Zimmerman,  D. Zuev,  B. Alam,  B. Albrecht,  
 E. Alguire,  S. A. Baeppler,  D. Barton,  Z. Benda,  Y. A. Bernard,  
 E. J. Berquist,  K. B. Bravaya,  H. Burton,  K. Carter-Fenk,  D. Casanova,  
 Chun-Min Chang,  Yunqing Chen,  A. Chien,  K. D. Closser,  M. P. Coons,  
 S. Coriani,  S. Dasgupta,  A. L. Dempwolff,  M. Diedenhofen,  Hainam Do,  
 R. G. Edgar,  Po-Tung Fang,  S. Faraji,  S. Fatehi,  Qingguo Feng,  
 J. Fosso-Tande,  J. Gayvert,  Qinghui Ge,  A. Ghysels,  G. Gidofalvi,  
 J. Gomes,  J. Gonthier,  A. Gunina,  D. Hait,  M. W. D. Hanson-Heine,  
 P. H. P. Harbach,  A. W. Hauser,  M. F. Herbst,  J. E. Herr,  
 E. G. Hohenstein,  Z. C. Holden,  Kerwin Hui,  B. C. Huynh,  T.-C. Jagau,  
 Hyunjun Ji,  B. Kaduk,  K. Khistyaev,  Jaehoon Kim,  P. Klunzinger,  K. Koh,  
 D. Kosenkov,  L. Koulias,  T. Kowalczyk,  C. M. Krauter,  A. Kunitsa,  
 Ka Un Lao,  A. Laurent,  K. V. Lawler,  Joonho Lee,  D. Lefrancois,  
 S. Lehtola,  D. S. Levine,  Yi-Pei Li,  You-Sheng Lin,  Fenglai Liu,  
 Kuan-Yu Liu,  E. Livshits,  M. Loipersberger,  A. Luenser,  P. Manohar,  
 E. Mansoor,  S. F. Manzer,  Shan-Ping Mao,  Yuezhi Mao,  N. Mardirossian,  
 A. V. Marenich,  T. Markovich,  L. A. Martinez-Martinez,  S. A. Maurer,  
 N. J. Mayhall,  S. C. McKenzie,  J.-M. Mewes,  P. Morgante,  A. F. Morrison,  
 J. W. Mullinax,  K. Nanda,  T. S. Nguyen-Beck,  R. Olivares-Amaya,  
 J. A. Parkhill,  S. K. Paul,  Zheng Pei,  T. M. Perrine,  F. Plasser,  
 P. Pokhilko,  S. Prager,  A. Prociuk,  E. Ramos,  B. Rana,  D. R. Rehn,  
 F. Rob,  M. Scheurer,  M. Schneider,  N. Sergueev,  S. M. Sharada,  
 S. Sharma,  D. W. Small,  T. Stauch,  C. J. Stein,  T. Stein,  Yu-Chuan Su,  
 S. P. Veccham,  A. J. W. Thom,  A. Tkatchenko,  T. Tsuchimochi,  
 N. M. Tubman,  L. Vogt,  M. L. Vidal,  O. Vydrov,  M. A. Watson,  J. Wenzel,  
 M. de Wergifosse,  T. A. Wesolowski,  A. White,  J. Witte,  A. Yamada,  
 Jun Yang,  K. Yao,  S. Yeganeh,  S. R. Yost,  Zhi-Qiang You,  A. Zech,  
 Igor Ying Zhang,  Xing Zhang,  Yan Zhao,  Ying Zhu,  B. R. Brooks,  
 G. K. L. Chan,  C. J. Cramer,  M. S. Gordon,  W. J. Hehre,  A. Klamt,  
 M. W. Schmidt,  C. D. Sherrill,  D. G. Truhlar,  A. Aspuru-Guzik,  R. Baer,  
 A. T. Bell,  N. A. Besley,  Jeng-Da Chai,  A. E. DePrince, III,  
 R. A. DiStasio Jr.,  A. Dreuw,  B. D. Dunietz,  T. R. Furlani,  
 Chao-Ping Hsu,  Yousung Jung,  Jing Kong,  D. S. Lambrecht,  WanZhen Liang,  
 C. Ochsenfeld,  V. A. Rassolov,  L. V. Slipchenko,  J. E. Subotnik,  
 T. Van Voorhis,  J. M. Herbert,  A. I. Krylov,  P. M. W. Gill,  M. Head-Gordon

 Contributors to earlier versions of Q-Chem not listed above: 
 R. D. Adamson,  B. Austin,  J. Baker,  G. J. O. Beran,  K. Brandhorst,  
 S. T. Brown,  E. F. C. Byrd,  A. K. Chakraborty,  C.-L. Cheng,  
 Siu Hung Chien,  D. M. Chipman,  D. L. Crittenden,  H. Dachsel,  
 R. J. Doerksen,  A. D. Dutoi,  L. Fusti-Molnar,  W. A. Goddard III,  
 A. Golubeva-Zadorozhnaya,  S. R. Gwaltney,  G. Hawkins,  A. Heyden,  
 S. Hirata,  G. Kedziora,  F. J. Keil,  C. Kelley,  Jihan Kim,  R. A. King,  
 R. Z. Khaliullin,  P. P. Korambath,  W. Kurlancheek,  A. M. Lee,  M. S. Lee,  
 S. V. Levchenko,  Ching Yeh Lin,  D. Liotard,  R. C. Lochan,  I. Lotan,  
 P. E. Maslen,  N. Nair,  D. P. O'Neill,  D. Neuhauser,  E. Neuscamman,  
 C. M. Oana,  R. Olson,  B. Peters,  R. Peverati,  P. A. Pieniazek,  
 Y. M. Rhee,  J. Ritchie,  M. A. Rohrdanz,  E. Rosta,  N. J. Russ,  
 H. F. Schaefer III,  N. E. Schultz,  N. Shenvi,  A. C. Simmonett,  A. Sodt,  
 D. Stuck,  K. S. Thanthiriwatte,  V. Vanovschi,  Tao Wang,  A. Warshel,  
 C. F. Williams,  Q. Wu,  X. Xu,  W. Zhang

 Please cite Q-Chem as follows:
 Y. Shao et al., Mol. Phys. 113, 184-215 (2015)
 DOI: 10.1080/00268976.2014.952696

 Q-Chem 5.2.2 for Intel X86 EM64T Linux

 Parts of Q-Chem use Armadillo 9.800.1 (Horizon Scraper).
 http://arma.sourceforge.net/

 Q-Chem begins on Sun Apr 12 05:36:27 2020  

Host: cn0821
0

     Scratch files written to /tmp/ypli/6721342.srvc1/qchem170419//
Warning:  Did not find "$end" marker in "$molecule" section

Checking the input file for inconsistencies... 	...done.

--------------------------------------------------------------
User input:
--------------------------------------------------------------
$rem
   JOBTYPE  sp
   EXCHANGE   omegaB97X-D
   BASIS   6-311+G(2df,2pd)
   max_scf_cycles   250
   geom_opt_max_cycles   1500
   basis2 6-31G*
   scf_algorithm rca_diis
   SYM_IGNORE  TRUE
   print_input   true
   geom_opt_dmax   80
   pop_mulliken false
   XC_GRID 000075000302
$end

$molecule
0 1
C       1.4931126700     -0.0001986051     0.2640623599
C       -0.0000000803     0.0027425131     -0.1695550879
H       1.8475006078     -0.8853753567     0.7929150003
H       1.8524452321     0.8816791628     0.7958204085
H       1.9688098817     0.0057180346     -0.7213099363
C       -1.4931129384     -0.0001989752     0.2640618709
H       0.0000009217     -0.8405013139     -0.8695723322
H       -0.0000003964     0.8341125107     -0.8828030273
H       -1.8475009307     -0.8853752627     0.7929152365
H       -1.9688106686     0.0057190505     -0.7213099052
H       -1.8524443595     0.8816789079     0.7958204316
--------------------------------------------------------------
 ----------------------------------------------------------------
             Standard Nuclear Orientation (Angstroms)
    I     Atom           X                Y                Z
 ----------------------------------------------------------------
    1      C       1.4931126700    -0.0001986051     0.2640623599
    2      C      -0.0000000803     0.0027425131    -0.1695550879
    3      H       1.8475006078    -0.8853753567     0.7929150003
    4      H       1.8524452321     0.8816791628     0.7958204085
    5      H       1.9688098817     0.0057180346    -0.7213099363
    6      C      -1.4931129384    -0.0001989752     0.2640618709
    7      H       0.0000009217    -0.8405013139    -0.8695723322
    8      H      -0.0000003964     0.8341125107    -0.8828030273
    9      H      -1.8475009307    -0.8853752627     0.7929152365
   10      H      -1.9688106686     0.0057190505    -0.7213099052
   11      H      -1.8524443595     0.8816789079     0.7958204316
 ----------------------------------------------------------------
 Nuclear Repulsion Energy =          80.24304224 hartrees
 There are       13 alpha and       13 beta electrons
 Requested basis set is 6-311+G(2df,2pd)
 There are 72 shells and 214 basis functions

 Total QAlloc Memory Limit   2000 MB
 Mega-Array Size       188 MB
 MEM_STATIC part       192 MB

                       Distance Matrix (Angstroms)
             C (  1)   C (  2)   H (  3)   H (  4)   H (  5)   C (  6)
   C (  2)  1.554805
   H (  3)  1.090327  2.264588
   H (  4)  1.090686  2.266282  1.767064
   H (  5)  1.094204  2.044665  1.761148  1.755714
   C (  6)  2.986226  1.554805  3.496130  3.500462  3.599431
   H (  7)  2.054415  1.095940  2.485786  3.028364  2.148087  2.054416
   H (  8)  2.059311  1.095399  3.029510  2.500319  2.142086  2.059311
   H (  9)  3.496130  2.264589  3.695002  4.100255  4.201328  1.090327
   H ( 10)  3.599431  2.044666  4.201328  4.203687  3.937621  1.094203
   H ( 11)  3.500461  2.266281  4.100254  3.704890  4.203686  1.090685
             H (  7)   H (  8)   H (  9)   H ( 10)
   H (  8)  1.674666
   H (  9)  2.485788  3.029510
   H ( 10)  2.148090  2.142085  1.761148
   H ( 11)  3.028364  2.500318  1.767063  1.755714
 
 A cutoff of  1.0D-09 yielded   2463 shell pairs
 There are     21796 function pairs (     26771 Cartesian)
 Smallest overlap matrix eigenvalue = 8.43E-05

 Scale SEOQF with 1.000000e-01/1.000000e-01/1.000000e-01

 Standard Electronic Orientation quadrupole field applied
 Nucleus-field energy     =     0.0000000014 hartrees
 Requested basis set is 6-31G(d)
 There are 28 shells and 58 basis functions
 A cutoff of  1.0D-09 yielded    393 shell pairs
 There are      1764 function pairs (      1959 Cartesian)
 Smallest overlap matrix eigenvalue = 7.89E-03
 Guess from superposition of atomic densities
 Warning:  Energy on first SCF cycle will be non-variational
 SAD guess density has 26.000000 electrons
 Long-range K will be added via erf
 Coulomb attenuation parameter = 0.2 bohr**(-1)
 A restricted hybrid HF-DFT SCF calculation will be
 performed using Relaxed Constraint Minimization + Pulay DIIS
 Exchange:     0.2220 Hartree-Fock + 1.0000 wB97X-D + LR-HF
 Correlation:  1.0000 wB97X-D
 Using Euler-Maclaurin-Lebedev (75,302) quadrature formula
 Dispersion:   Grimme D
 SCF converges when DIIS error is below 1.0E-04
 using 3 threads for integral computing
 -------------------------------------------------------
 OpenMP Integral computing Module                
 Release: version 1.0, May 2013, Q-Chem Inc. Pittsburgh 
 -------------------------------------------------------
 using 3 threads for integral computing
 -------------------------------------------------------
 OpenMP Integral computing Module                
 Release: version 1.0, May 2013, Q-Chem Inc. Pittsburgh 
 -------------------------------------------------------
 ---------------------------------------
  Cycle       Energy         DIIS Error
 ---------------------------------------
    1    -119.5672288758      9.87E-02
    2    -119.0314983708      8.30E-03
    3    -119.0502557334      2.65E-03
    4    -119.0614131645      1.83E-03
    5    -119.0622568384      3.13E-04 Done RCA. Switching to DIIS
    6    -119.0628570730      2.37E-04
    7    -119.0628815357      4.24E-06 Convergence criterion met
 ---------------------------------------
 SCF time:  CPU 32.86 s  wall 11.39 s
 SCF   energy in the small basis set = -119.06288154
 Total energy in the small basis set = -119.06288154
 ----------------------------------------------------
  Cycle       Energy    
 ----------------------------------------------------
    1     -16.5129619355     -1.65E+01
 Long-range K will be added via erf
 Coulomb attenuation parameter = 0.2 bohr**(-1)
 A restricted hybrid HF-DFT SCF calculation will be
 performed using Relaxed Constraint Minimization + Pulay DIIS
 Exchange:     0.2220 Hartree-Fock + 1.0000 wB97X-D + LR-HF
 Correlation:  1.0000 wB97X-D
 Using Euler-Maclaurin-Lebedev (75,302) quadrature formula
 Dispersion:   Grimme D
 SCF converges when DIIS error is below 1.0E-05
 Basis2 calculation detected. Using small basis as guess for larger.
 SCFMinFind is unable to tell whether the solution found is close.
 Resetting ReadMinima to 0 and attempting to follow guess.
 SCFMinFind following SCF Guess.
 using 3 threads for integral computing
 -------------------------------------------------------
 OpenMP Integral computing Module                
 Release: version 1.0, May 2013, Q-Chem Inc. Pittsburgh 
 -------------------------------------------------------
 using 3 threads for integral computing
 -------------------------------------------------------
 OpenMP Integral computing Module                
 Release: version 1.0, May 2013, Q-Chem Inc. Pittsburgh 
 -------------------------------------------------------
 ---------------------------------------
  Cycle       Energy         DIIS Error
 ---------------------------------------
    1    -119.0828016060      4.21E-03
    2    -119.1046827881      5.70E-04 Done RCA. Switching to DIIS
    3    -119.1054977618      3.86E-04
    4    -119.1063162732      4.80E-05
    5    -119.1063315904      1.47E-05
    6    -119.1063328856      4.20E-06 Convergence criterion met
 ---------------------------------------
 SCF time:  CPU 95.35 s  wall 32.26 s
 SCF   energy in the final basis set = -119.10633289
 Total energy in the final basis set = -119.10633289
 
 --------------------------------------------------------------
 
                    Orbital Energies (a.u.)
 --------------------------------------------------------------
 
 Alpha MOs
 -- Occupied --
-10.2795 -10.2745 -10.2745  -0.8740  -0.7929  -0.6723  -0.5358  -0.5062
 -0.5018  -0.4758  -0.4293  -0.3969  -0.3879
 -- Virtual --
  0.0621   0.0859   0.0954   0.0992   0.1108   0.1275   0.1318   0.1570
  0.1648   0.1739   0.2006   0.2148   0.2239   0.2250   0.2329   0.2560
  0.2585   0.2718   0.2782   0.3022   0.3203   0.3737   0.4643   0.4797
  0.4823   0.4935   0.5304   0.5315   0.5585   0.5679   0.5708   0.5883
  0.5965   0.5999   0.6277   0.6462   0.6612   0.6786   0.6953   0.7098
  0.7252   0.7659   0.8328   0.8411   0.8613   0.8823   0.9499   0.9647
  0.9686   0.9701   1.0260   1.0939   1.1396   1.1557   1.1643   1.1744
  1.2387   1.2400   1.2597   1.2799   1.2982   1.3004   1.3058   1.3201
  1.3572   1.3839   1.4155   1.4451   1.4495   1.4547   1.4580   1.4585
  1.4859   1.6022   1.6028   1.6301   1.6516   1.6689   1.6993   1.7522
  1.8046   2.4306   2.4420   2.4703   2.4987   2.5395   2.5691   2.6293
  2.6544   2.6753   2.7150   2.8058   2.8518   2.8769   2.9247   2.9363
  2.9513   2.9743   3.0049   3.0051   3.0522   3.0589   3.0970   3.0983
  3.1360   3.1465   3.1552   3.1793   3.1879   3.1894   3.2227   3.2634
  3.2706   3.3017   3.3080   3.3299   3.3353   3.3466   3.3837   3.4203
  3.4297   3.4417   3.5302   3.5578   3.5658   3.5732   3.6028   3.6246
  3.6264   3.6713   3.7012   3.7199   3.7313   3.7441   3.7505   3.8119
  3.8586   3.8768   3.8970   3.9308   3.9350   3.9899   4.0116   4.0491
  4.0871   4.1062   4.1445   4.1516   4.1552   4.1773   4.1859   4.2273
  4.2342   4.2402   4.2552   4.3360   4.3725   4.3885   4.4662   4.4755
  4.4954   4.5388   4.5612   4.6353   4.7383   4.7904   4.8801   4.8856
  4.9012   4.9284   4.9590   4.9873   5.0130   5.0368   5.0967   5.1083
  5.1503   5.1668   5.2108   5.2482   5.2890   5.2966   5.3330   5.3375
  5.3490   5.4198   5.4589   5.4600   5.5905   5.6657   5.6704   5.8628
  5.9519   6.3626   6.3900   6.3939   6.4096   6.4641  25.1975  25.3814
 25.4205
 --------------------------------------------------------------
 
 -----------------------------------------------------------------
                    Cartesian Multipole Moments
 -----------------------------------------------------------------
    Charge (ESU x 10^10)
                -0.0000
    Dipole Moment (Debye)
         X       0.0000      Y      -0.0038      Z      -0.2824
       Tot       0.2824
    Quadrupole Moments (Debye-Ang)
        XX     -21.7453     XY      -0.0000     YY     -21.5483
        XZ       0.0000     YZ      -0.0248     ZZ     -21.7995
    Octopole Moments (Debye-Ang^2)
       XXX       0.0000    XXY       0.0184    XYY       0.0000
       YYY      -0.0618    XXZ      -2.0343    XYZ       0.0000
       YYZ      -1.0703    XZZ      -0.0000    YZZ      -0.0008
       ZZZ      -6.4394
    Hexadecapole Moments (Debye-Ang^3)
      XXXX    -272.5917   XXXY      -0.0000   XXYY     -50.0955
      XYYY      -0.0000   YYYY     -43.9152   XXXZ       0.0000
      XXYZ      -0.0431   XYYZ      -0.0000   YYYZ       0.0136
      XXZZ     -50.9776   XYZZ      -0.0000   YYZZ     -15.0505
      XZZZ      -0.0000   YZZZ      -0.0114   ZZZZ     -54.2527
 -----------------------------------------------------------------
Archival summary:
1\1\cn0821\SP\ProcedureUnspecified\BasisUnspecified\38\r0852400\SunApr1205:37:152020SunApr1205:37:152020\0\\#,ProcedureUnspecified,BasisUnspecified,\\0,1\C\H,1,1.0954\H,1,1.09594,2,99.6754\C,1,1.5548,2,100.546,3,-102.36,0\H,4,1.09033,1,116.676,2,165.327,0\H,4,1.09069,1,116.797,2,-64.4324,0\H,4,1.0942,1,99.5747,2,50.1703,0\C,1,1.5548,2,100.546,3,102.36,0\H,8,1.09033,1,116.676,2,-165.327,0\H,8,1.09069,1,116.797,2,64.4324,0\H,8,1.0942,1,99.5747,2,-50.1703,0\\\@

 Total job time:  47.82s(wall), 133.27s(cpu) 
 Sun Apr 12 05:37:15 2020

        *************************************************************
        *                                                           *
        *  Thank you very much for using Q-Chem.  Have a nice day.  *
        *                                                           *
        *************************************************************


