                  Welcome to Q-Chem
     A Quantum Leap Into The Future Of Chemistry


 Q-Chem 5.2 (devel), Q-Chem, Inc., Pleasanton, CA (2019)

 Yihan Shao,  Zhengting Gan,  E. Epifanovsky,  A. T. B. Gilbert,  M. Wormit,  
 J. Kussmann,  A. W. Lange,  A. Behn,  Jia Deng,  Xintian Feng,  D. Ghosh,  
 M. Goldey,  P. R. Horn,  L. D. Jacobson,  I. Kaliman,  T. Kus,  A. Landau,  
 Jie Liu,  E. I. Proynov,  R. M. Richard,  R. P. Steele,  E. J. Sundstrom,  
 H. L. Woodcock III,  P. M. Zimmerman,  D. Zuev,  B. Alam,  B. Albrecht,  
 E. Alguire,  S. A. Baeppler,  D. Barton,  Z. Benda,  Y. A. Bernard,  
 E. J. Berquist,  K. B. Bravaya,  H. Burton,  K. Carter-Fenk,  D. Casanova,  
 Chun-Min Chang,  Yunqing Chen,  A. Chien,  K. D. Closser,  M. P. Coons,  
 S. Coriani,  S. Dasgupta,  A. L. Dempwolff,  M. Diedenhofen,  Hainam Do,  
 R. G. Edgar,  Po-Tung Fang,  S. Faraji,  S. Fatehi,  Qingguo Feng,  
 J. Fosso-Tande,  J. Gayvert,  Qinghui Ge,  A. Ghysels,  G. Gidofalvi,  
 J. Gomes,  J. Gonthier,  A. Gunina,  D. Hait,  M. W. D. Hanson-Heine,  
 P. H. P. Harbach,  A. W. Hauser,  M. F. Herbst,  J. E. Herr,  
 E. G. Hohenstein,  Z. C. Holden,  Kerwin Hui,  B. C. Huynh,  T.-C. Jagau,  
 Hyunjun Ji,  B. Kaduk,  K. Khistyaev,  Jaehoon Kim,  P. Klunzinger,  K. Koh,  
 D. Kosenkov,  L. Koulias,  T. Kowalczyk,  C. M. Krauter,  A. Kunitsa,  
 Ka Un Lao,  A. Laurent,  K. V. Lawler,  Joonho Lee,  D. Lefrancois,  
 S. Lehtola,  D. S. Levine,  Yi-Pei Li,  You-Sheng Lin,  Fenglai Liu,  
 Kuan-Yu Liu,  E. Livshits,  M. Loipersberger,  A. Luenser,  P. Manohar,  
 E. Mansoor,  S. F. Manzer,  Shan-Ping Mao,  Yuezhi Mao,  N. Mardirossian,  
 A. V. Marenich,  T. Markovich,  L. A. Martinez-Martinez,  S. A. Maurer,  
 N. J. Mayhall,  S. C. McKenzie,  J.-M. Mewes,  P. Morgante,  A. F. Morrison,  
 J. W. Mullinax,  K. Nanda,  T. S. Nguyen-Beck,  R. Olivares-Amaya,  
 J. A. Parkhill,  S. K. Paul,  Zheng Pei,  T. M. Perrine,  F. Plasser,  
 P. Pokhilko,  S. Prager,  A. Prociuk,  E. Ramos,  B. Rana,  D. R. Rehn,  
 F. Rob,  M. Scheurer,  M. Schneider,  N. Sergueev,  S. M. Sharada,  
 S. Sharma,  D. W. Small,  T. Stauch,  C. J. Stein,  T. Stein,  Yu-Chuan Su,  
 S. P. Veccham,  A. J. W. Thom,  A. Tkatchenko,  T. Tsuchimochi,  
 N. M. Tubman,  L. Vogt,  M. L. Vidal,  O. Vydrov,  M. A. Watson,  J. Wenzel,  
 M. de Wergifosse,  T. A. Wesolowski,  A. White,  J. Witte,  A. Yamada,  
 Jun Yang,  K. Yao,  S. Yeganeh,  S. R. Yost,  Zhi-Qiang You,  A. Zech,  
 Igor Ying Zhang,  Xing Zhang,  Yan Zhao,  Ying Zhu,  B. R. Brooks,  
 G. K. L. Chan,  C. J. Cramer,  M. S. Gordon,  W. J. Hehre,  A. Klamt,  
 M. W. Schmidt,  C. D. Sherrill,  D. G. Truhlar,  A. Aspuru-Guzik,  R. Baer,  
 A. T. Bell,  N. A. Besley,  Jeng-Da Chai,  A. E. DePrince, III,  
 R. A. DiStasio Jr.,  A. Dreuw,  B. D. Dunietz,  T. R. Furlani,  
 Chao-Ping Hsu,  Yousung Jung,  Jing Kong,  D. S. Lambrecht,  WanZhen Liang,  
 C. Ochsenfeld,  V. A. Rassolov,  L. V. Slipchenko,  J. E. Subotnik,  
 T. Van Voorhis,  J. M. Herbert,  A. I. Krylov,  P. M. W. Gill,  M. Head-Gordon

 Contributors to earlier versions of Q-Chem not listed above: 
 R. D. Adamson,  B. Austin,  J. Baker,  G. J. O. Beran,  K. Brandhorst,  
 S. T. Brown,  E. F. C. Byrd,  A. K. Chakraborty,  C.-L. Cheng,  
 Siu Hung Chien,  D. M. Chipman,  D. L. Crittenden,  H. Dachsel,  
 R. J. Doerksen,  A. D. Dutoi,  L. Fusti-Molnar,  W. A. Goddard III,  
 A. Golubeva-Zadorozhnaya,  S. R. Gwaltney,  G. Hawkins,  A. Heyden,  
 S. Hirata,  G. Kedziora,  F. J. Keil,  C. Kelley,  Jihan Kim,  R. A. King,  
 R. Z. Khaliullin,  P. P. Korambath,  W. Kurlancheek,  A. M. Lee,  M. S. Lee,  
 S. V. Levchenko,  Ching Yeh Lin,  D. Liotard,  R. C. Lochan,  I. Lotan,  
 P. E. Maslen,  N. Nair,  D. P. O'Neill,  D. Neuhauser,  E. Neuscamman,  
 C. M. Oana,  R. Olson,  B. Peters,  R. Peverati,  P. A. Pieniazek,  
 Y. M. Rhee,  J. Ritchie,  M. A. Rohrdanz,  E. Rosta,  N. J. Russ,  
 H. F. Schaefer III,  N. E. Schultz,  N. Shenvi,  A. C. Simmonett,  A. Sodt,  
 D. Stuck,  K. S. Thanthiriwatte,  V. Vanovschi,  Tao Wang,  A. Warshel,  
 C. F. Williams,  Q. Wu,  X. Xu,  W. Zhang

 Please cite Q-Chem as follows:
 Y. Shao et al., Mol. Phys. 113, 184-215 (2015)
 DOI: 10.1080/00268976.2014.952696

 Q-Chem 5.2.2 for Intel X86 EM64T Linux

 Parts of Q-Chem use Armadillo 9.800.1 (Horizon Scraper).
 http://arma.sourceforge.net/

 Q-Chem begins on Sun Apr 12 08:22:04 2020  

Host: cn0821
0

     Scratch files written to /tmp/ypli/6721342.srvc1/qchem195510//
Warning:  Did not find "$end" marker in "$molecule" section

Checking the input file for inconsistencies... 	...done.

--------------------------------------------------------------
User input:
--------------------------------------------------------------
$rem
   JOBTYPE  sp
   EXCHANGE   omegaB97X-D
   BASIS   6-311+G(2df,2pd)
   max_scf_cycles   250
   geom_opt_max_cycles   1500
   basis2 6-31G*
   scf_algorithm rca_diis
   SYM_IGNORE  TRUE
   print_input   true
   geom_opt_dmax   80
   pop_mulliken false
   XC_GRID 000075000302
$end

$molecule
0 1
C       1.2801481448     0.0003069739     0.2463744278
C       0.0039352918     0.0000032262     -0.5872405618
H       1.3198241971     -0.9020660496     0.9103202460
H       1.3195530612     0.9009019647     0.9091262705
H       2.1207992853     0.0003793833     -0.3389538254
C       -1.2541271310     -0.0003005832     0.2724612319
H       0.0000958899     -0.8738704682     -1.2430584407
H       -0.0000689319     0.8738700665     -1.2430511022
H       -1.2906542492     -0.8591469747     0.8973190967
H       -2.2085901670     -0.0003806929     -0.3807518199
H       -1.2909154515     0.8603038201     0.8984994959
--------------------------------------------------------------
 ----------------------------------------------------------------
             Standard Nuclear Orientation (Angstroms)
    I     Atom           X                Y                Z
 ----------------------------------------------------------------
    1      C       1.2801481448     0.0003069739     0.2463744278
    2      C       0.0039352918     0.0000032262    -0.5872405618
    3      H       1.3198241971    -0.9020660496     0.9103202460
    4      H       1.3195530612     0.9009019647     0.9091262705
    5      H       2.1207992853     0.0003793833    -0.3389538254
    6      C      -1.2541271310    -0.0003005832     0.2724612319
    7      H       0.0000958899    -0.8738704682    -1.2430584407
    8      H      -0.0000689319     0.8738700665    -1.2430511022
    9      H      -1.2906542492    -0.8591469747     0.8973190967
   10      H      -2.2085901670    -0.0003806929    -0.3807518199
   11      H      -1.2909154515     0.8603038201     0.8984994959
 ----------------------------------------------------------------
 Nuclear Repulsion Energy =          82.76129422 hartrees
 There are       13 alpha and       13 beta electrons
 Requested basis set is 6-311+G(2df,2pd)
 There are 72 shells and 214 basis functions

 Total QAlloc Memory Limit   2000 MB
 Mega-Array Size       188 MB
 MEM_STATIC part       192 MB

                       Distance Matrix (Angstroms)
             C (  1)   C (  2)   H (  3)   H (  4)   H (  5)   C (  6)
   C (  2)  1.524347
   H (  3)  1.121015  2.188146
   H (  4)  1.118867  2.186683  1.802968
   H (  5)  1.024355  2.131375  1.736852  1.735120
   C (  6)  2.534410  1.523748  2.800941  2.800239  3.429863
   H (  7)  2.149681  1.092596  2.525771  3.085885  2.465583  2.152440
   H (  8)  2.149525  1.092587  3.087568  2.524678  2.465453  2.152583
   H (  9)  2.787726  2.148958  2.610864  3.148189  3.728964  1.062732
   H ( 10)  3.544656  2.222140  3.863886  3.863145  4.329591  1.156584
   H ( 11)  2.788410  2.150390  3.149928  2.610806  3.729686  1.064855
             H (  7)   H (  8)   H (  9)   H ( 10)
   H (  8)  1.747741
   H (  9)  2.499494  3.041405
   H ( 10)  2.526826  2.526943  1.792638
   H ( 11)  3.043081  2.500541  1.719451  1.794265
 
 A cutoff of  1.0D-09 yielded   2533 shell pairs
 There are     22585 function pairs (     27769 Cartesian)
 Smallest overlap matrix eigenvalue = 8.68E-05

 Scale SEOQF with 1.000000e-01/1.000000e-01/1.000000e-01

 Standard Electronic Orientation quadrupole field applied
 Nucleus-field energy     =     0.0000000006 hartrees
 Requested basis set is 6-31G(d)
 There are 28 shells and 58 basis functions
 A cutoff of  1.0D-09 yielded    402 shell pairs
 There are      1773 function pairs (      1968 Cartesian)
 Smallest overlap matrix eigenvalue = 6.78E-03
 Guess from superposition of atomic densities
 Warning:  Energy on first SCF cycle will be non-variational
 SAD guess density has 26.000000 electrons
 Long-range K will be added via erf
 Coulomb attenuation parameter = 0.2 bohr**(-1)
 A restricted hybrid HF-DFT SCF calculation will be
 performed using Relaxed Constraint Minimization + Pulay DIIS
 Exchange:     0.2220 Hartree-Fock + 1.0000 wB97X-D + LR-HF
 Correlation:  1.0000 wB97X-D
 Using Euler-Maclaurin-Lebedev (75,302) quadrature formula
 Dispersion:   Grimme D
 SCF converges when DIIS error is below 1.0E-04
 using 3 threads for integral computing
 -------------------------------------------------------
 OpenMP Integral computing Module                
 Release: version 1.0, May 2013, Q-Chem Inc. Pittsburgh 
 -------------------------------------------------------
 using 3 threads for integral computing
 -------------------------------------------------------
 OpenMP Integral computing Module                
 Release: version 1.0, May 2013, Q-Chem Inc. Pittsburgh 
 -------------------------------------------------------
 ---------------------------------------
  Cycle       Energy         DIIS Error
 ---------------------------------------
    1    -119.6173979523      1.01E-01
    2    -119.0589459163      9.06E-03
    3    -119.0803466563      2.48E-03
    4    -119.0944528528      1.69E-03
    5    -119.0951600529      2.69E-04 Done RCA. Switching to DIIS
    6    -119.0956785918      1.98E-04
    7    -119.0956956997      4.69E-06 Convergence criterion met
 ---------------------------------------
 SCF time:  CPU 33.22 s  wall 11.49 s
 SCF   energy in the small basis set = -119.09569570
 Total energy in the small basis set = -119.09569570
 ----------------------------------------------------
  Cycle       Energy    
 ----------------------------------------------------
    1     -16.5423044700     -1.65E+01
 Long-range K will be added via erf
 Coulomb attenuation parameter = 0.2 bohr**(-1)
 A restricted hybrid HF-DFT SCF calculation will be
 performed using Relaxed Constraint Minimization + Pulay DIIS
 Exchange:     0.2220 Hartree-Fock + 1.0000 wB97X-D + LR-HF
 Correlation:  1.0000 wB97X-D
 Using Euler-Maclaurin-Lebedev (75,302) quadrature formula
 Dispersion:   Grimme D
 SCF converges when DIIS error is below 1.0E-05
 Basis2 calculation detected. Using small basis as guess for larger.
 SCFMinFind is unable to tell whether the solution found is close.
 Resetting ReadMinima to 0 and attempting to follow guess.
 SCFMinFind following SCF Guess.
 using 3 threads for integral computing
 -------------------------------------------------------
 OpenMP Integral computing Module                
 Release: version 1.0, May 2013, Q-Chem Inc. Pittsburgh 
 -------------------------------------------------------
 using 3 threads for integral computing
 -------------------------------------------------------
 OpenMP Integral computing Module                
 Release: version 1.0, May 2013, Q-Chem Inc. Pittsburgh 
 -------------------------------------------------------
 ---------------------------------------
  Cycle       Energy         DIIS Error
 ---------------------------------------
    1    -119.1150838500      4.21E-03
    2    -119.1371175128      5.95E-04 Done RCA. Switching to DIIS
    3    -119.1379442800      4.17E-04
    4    -119.1388964679      4.55E-05
    5    -119.1389111955      9.98E-06 Convergence criterion met
 ---------------------------------------
 SCF time:  CPU 83.73 s  wall 28.34 s
 SCF   energy in the final basis set = -119.13891120
 Total energy in the final basis set = -119.13891120
 
 --------------------------------------------------------------
 
                    Orbital Energies (a.u.)
 --------------------------------------------------------------
 
 Alpha MOs
 -- Occupied --
-10.2745 -10.2655 -10.2640  -0.8817  -0.7783  -0.6785  -0.5462  -0.5256
 -0.4819  -0.4640  -0.4218  -0.4142  -0.4074
 -- Virtual --
  0.0690   0.0858   0.0909   0.0990   0.1250   0.1299   0.1334   0.1425
  0.1431   0.1702   0.1720   0.1912   0.2293   0.2378   0.2474   0.2642
  0.2804   0.2862   0.3107   0.3132   0.3352   0.3505   0.4581   0.4656
  0.4713   0.5098   0.5132   0.5179   0.5454   0.5614   0.5784   0.5897
  0.6186   0.6280   0.6410   0.6424   0.6569   0.6618   0.7102   0.7252
  0.7314   0.7672   0.8214   0.8648   0.8679   0.8729   0.8809   0.9585
  1.0010   1.0524   1.0574   1.1325   1.1450   1.1818   1.1825   1.2134
  1.2331   1.2333   1.2687   1.2773   1.2848   1.2923   1.3267   1.3696
  1.3809   1.3881   1.4113   1.4464   1.4637   1.4712   1.4782   1.4805
  1.5222   1.5745   1.6051   1.6195   1.6427   1.6596   1.6938   1.6938
  1.7459   2.3739   2.4277   2.4810   2.5264   2.5439   2.5655   2.6038
  2.6288   2.7156   2.8219   2.8320   2.8394   2.9098   2.9238   2.9280
  2.9338   2.9422   2.9996   3.0113   3.0530   3.0750   3.0782   3.1014
  3.1324   3.1359   3.1868   3.1880   3.2047   3.2294   3.2792   3.3081
  3.3238   3.3300   3.3388   3.3583   3.3662   3.3676   3.3960   3.4495
  3.4714   3.4750   3.4847   3.5140   3.5616   3.5684   3.6065   3.6133
  3.6282   3.6684   3.6917   3.7146   3.7753   3.7910   3.8787   3.8857
  3.9393   3.9419   3.9502   3.9605   3.9671   3.9943   4.0418   4.0735
  4.0778   4.1009   4.1137   4.1378   4.1557   4.1588   4.1948   4.2016
  4.2188   4.2433   4.2619   4.3662   4.3980   4.4054   4.4119   4.4277
  4.4343   4.5729   4.5842   4.6050   4.6670   4.8034   4.8126   4.8908
  4.9232   4.9310   4.9565   4.9726   5.0314   5.0350   5.0739   5.1019
  5.1336   5.2509   5.2563   5.2590   5.3173   5.3585   5.3688   5.3797
  5.4257   5.4336   5.4715   5.5317   5.5707   5.5842   5.6443   5.7435
  5.9525   6.3186   6.3260   6.4395   6.4698   6.4850  25.2040  25.4305
 25.4464
 --------------------------------------------------------------
 
 -----------------------------------------------------------------
                    Cartesian Multipole Moments
 -----------------------------------------------------------------
    Charge (ESU x 10^10)
                 0.0000
    Dipole Moment (Debye)
         X       0.0824      Y       0.0003      Z      -0.0831
       Tot       0.1170
    Quadrupole Moments (Debye-Ang)
        XX     -22.1985     XY       0.0043     YY     -21.3625
        XZ      -0.1298     YZ       0.0001     ZZ     -21.8344
    Octopole Moments (Debye-Ang^2)
       XXX       0.4533    XXY       0.0012    XYY       0.0352
       YYY       0.0009    XXZ      -1.5442    XYZ       0.0010
       YYZ       0.4883    XZZ      -0.1140    YZZ       0.0004
       ZZZ      -0.4016
    Hexadecapole Moments (Debye-Ang^3)
      XXXX    -202.6625   XXXY       0.0216   XXYY     -42.2723
      XYYY       0.0075   YYYY     -44.1464   XXXZ      -0.6688
      XXYZ       0.0007   XYYZ      -0.2283   YYYZ       0.0008
      XXZZ     -45.3471   XYZZ       0.0021   YYZZ     -17.0691
      XZZZ      -0.8745   YZZZ       0.0008   ZZZZ     -72.1939
 -----------------------------------------------------------------
Archival summary:
1\1\cn0821\SP\ProcedureUnspecified\BasisUnspecified\38\r0852400\SunApr1208:22:482020SunApr1208:22:482020\0\\#,ProcedureUnspecified,BasisUnspecified,\\0,1\C\H,1,1.09259\H,1,1.0926,2,106.225\C,1,1.52375,2,109.62,3,-118.346,0\H,4,1.06273,1,111.117,2,178.082,0\H,4,1.06486,1,111.104,2,-61.8526,0\H,4,1.15658,1,111.266,2,58.1078,0\C,1,1.52435,2,109.339,3,117.895,0\H,8,1.02436,1,111.999,2,-57.964,0\H,8,1.11887,1,110.706,2,62.6719,0\H,8,1.12102,1,110.693,2,-178.585,0\\\@

 Total job time:  43.99s(wall), 122.07s(cpu) 
 Sun Apr 12 08:22:48 2020

        *************************************************************
        *                                                           *
        *  Thank you very much for using Q-Chem.  Have a nice day.  *
        *                                                           *
        *************************************************************


