                  Welcome to Q-Chem
     A Quantum Leap Into The Future Of Chemistry


 Q-Chem 5.2 (devel), Q-Chem, Inc., Pleasanton, CA (2019)

 Yihan Shao,  Zhengting Gan,  E. Epifanovsky,  A. T. B. Gilbert,  M. Wormit,  
 J. Kussmann,  A. W. Lange,  A. Behn,  Jia Deng,  Xintian Feng,  D. Ghosh,  
 M. Goldey,  P. R. Horn,  L. D. Jacobson,  I. Kaliman,  T. Kus,  A. Landau,  
 Jie Liu,  E. I. Proynov,  R. M. Richard,  R. P. Steele,  E. J. Sundstrom,  
 H. L. Woodcock III,  P. M. Zimmerman,  D. Zuev,  B. Alam,  B. Albrecht,  
 E. Alguire,  S. A. Baeppler,  D. Barton,  Z. Benda,  Y. A. Bernard,  
 E. J. Berquist,  K. B. Bravaya,  H. Burton,  K. Carter-Fenk,  D. Casanova,  
 Chun-Min Chang,  Yunqing Chen,  A. Chien,  K. D. Closser,  M. P. Coons,  
 S. Coriani,  S. Dasgupta,  A. L. Dempwolff,  M. Diedenhofen,  Hainam Do,  
 R. G. Edgar,  Po-Tung Fang,  S. Faraji,  S. Fatehi,  Qingguo Feng,  
 J. Fosso-Tande,  J. Gayvert,  Qinghui Ge,  A. Ghysels,  G. Gidofalvi,  
 J. Gomes,  J. Gonthier,  A. Gunina,  D. Hait,  M. W. D. Hanson-Heine,  
 P. H. P. Harbach,  A. W. Hauser,  M. F. Herbst,  J. E. Herr,  
 E. G. Hohenstein,  Z. C. Holden,  Kerwin Hui,  B. C. Huynh,  T.-C. Jagau,  
 Hyunjun Ji,  B. Kaduk,  K. Khistyaev,  Jaehoon Kim,  P. Klunzinger,  K. Koh,  
 D. Kosenkov,  L. Koulias,  T. Kowalczyk,  C. M. Krauter,  A. Kunitsa,  
 Ka Un Lao,  A. Laurent,  K. V. Lawler,  Joonho Lee,  D. Lefrancois,  
 S. Lehtola,  D. S. Levine,  Yi-Pei Li,  You-Sheng Lin,  Fenglai Liu,  
 Kuan-Yu Liu,  E. Livshits,  M. Loipersberger,  A. Luenser,  P. Manohar,  
 E. Mansoor,  S. F. Manzer,  Shan-Ping Mao,  Yuezhi Mao,  N. Mardirossian,  
 A. V. Marenich,  T. Markovich,  L. A. Martinez-Martinez,  S. A. Maurer,  
 N. J. Mayhall,  S. C. McKenzie,  J.-M. Mewes,  P. Morgante,  A. F. Morrison,  
 J. W. Mullinax,  K. Nanda,  T. S. Nguyen-Beck,  R. Olivares-Amaya,  
 J. A. Parkhill,  S. K. Paul,  Zheng Pei,  T. M. Perrine,  F. Plasser,  
 P. Pokhilko,  S. Prager,  A. Prociuk,  E. Ramos,  B. Rana,  D. R. Rehn,  
 F. Rob,  M. Scheurer,  M. Schneider,  N. Sergueev,  S. M. Sharada,  
 S. Sharma,  D. W. Small,  T. Stauch,  C. J. Stein,  T. Stein,  Yu-Chuan Su,  
 S. P. Veccham,  A. J. W. Thom,  A. Tkatchenko,  T. Tsuchimochi,  
 N. M. Tubman,  L. Vogt,  M. L. Vidal,  O. Vydrov,  M. A. Watson,  J. Wenzel,  
 M. de Wergifosse,  T. A. Wesolowski,  A. White,  J. Witte,  A. Yamada,  
 Jun Yang,  K. Yao,  S. Yeganeh,  S. R. Yost,  Zhi-Qiang You,  A. Zech,  
 Igor Ying Zhang,  Xing Zhang,  Yan Zhao,  Ying Zhu,  B. R. Brooks,  
 G. K. L. Chan,  C. J. Cramer,  M. S. Gordon,  W. J. Hehre,  A. Klamt,  
 M. W. Schmidt,  C. D. Sherrill,  D. G. Truhlar,  A. Aspuru-Guzik,  R. Baer,  
 A. T. Bell,  N. A. Besley,  Jeng-Da Chai,  A. E. DePrince, III,  
 R. A. DiStasio Jr.,  A. Dreuw,  B. D. Dunietz,  T. R. Furlani,  
 Chao-Ping Hsu,  Yousung Jung,  Jing Kong,  D. S. Lambrecht,  WanZhen Liang,  
 C. Ochsenfeld,  V. A. Rassolov,  L. V. Slipchenko,  J. E. Subotnik,  
 T. Van Voorhis,  J. M. Herbert,  A. I. Krylov,  P. M. W. Gill,  M. Head-Gordon

 Contributors to earlier versions of Q-Chem not listed above: 
 R. D. Adamson,  B. Austin,  J. Baker,  G. J. O. Beran,  K. Brandhorst,  
 S. T. Brown,  E. F. C. Byrd,  A. K. Chakraborty,  C.-L. Cheng,  
 Siu Hung Chien,  D. M. Chipman,  D. L. Crittenden,  H. Dachsel,  
 R. J. Doerksen,  A. D. Dutoi,  L. Fusti-Molnar,  W. A. Goddard III,  
 A. Golubeva-Zadorozhnaya,  S. R. Gwaltney,  G. Hawkins,  A. Heyden,  
 S. Hirata,  G. Kedziora,  F. J. Keil,  C. Kelley,  Jihan Kim,  R. A. King,  
 R. Z. Khaliullin,  P. P. Korambath,  W. Kurlancheek,  A. M. Lee,  M. S. Lee,  
 S. V. Levchenko,  Ching Yeh Lin,  D. Liotard,  R. C. Lochan,  I. Lotan,  
 P. E. Maslen,  N. Nair,  D. P. O'Neill,  D. Neuhauser,  E. Neuscamman,  
 C. M. Oana,  R. Olson,  B. Peters,  R. Peverati,  P. A. Pieniazek,  
 Y. M. Rhee,  J. Ritchie,  M. A. Rohrdanz,  E. Rosta,  N. J. Russ,  
 H. F. Schaefer III,  N. E. Schultz,  N. Shenvi,  A. C. Simmonett,  A. Sodt,  
 D. Stuck,  K. S. Thanthiriwatte,  V. Vanovschi,  Tao Wang,  A. Warshel,  
 C. F. Williams,  Q. Wu,  X. Xu,  W. Zhang

 Please cite Q-Chem as follows:
 Y. Shao et al., Mol. Phys. 113, 184-215 (2015)
 DOI: 10.1080/00268976.2014.952696

 Q-Chem 5.2.2 for Intel X86 EM64T Linux

 Parts of Q-Chem use Armadillo 9.800.1 (Horizon Scraper).
 http://arma.sourceforge.net/

 Q-Chem begins on Sun Apr 12 06:59:33 2020  

Host: cn0821
0

     Scratch files written to /tmp/ypli/6721342.srvc1/qchem183227//
Warning:  Did not find "$end" marker in "$molecule" section

Checking the input file for inconsistencies... 	...done.

--------------------------------------------------------------
User input:
--------------------------------------------------------------
$rem
   JOBTYPE  sp
   EXCHANGE   omegaB97X-D
   BASIS   6-311+G(2df,2pd)
   max_scf_cycles   250
   geom_opt_max_cycles   1500
   basis2 6-31G*
   scf_algorithm rca_diis
   SYM_IGNORE  TRUE
   print_input   true
   geom_opt_dmax   80
   pop_mulliken false
   XC_GRID 000075000302
$end

$molecule
0 1
C       1.3630705312     -0.0044270680     0.3697216423
C       0.2423137854     0.0006502094     -0.5545463536
H       1.3102787395     -0.9453829643     0.9069245593
H       1.3300248103     0.9401150701     0.9030803803
H       2.1137480520     0.0126610498     -0.4156781223
C       -1.1939531008     0.0055558135     0.1399582719
H       -0.1464122741     -0.7963485028     -1.1928595699
H       -0.1675225190     0.7888701616     -1.1905513265
H       -1.3540178169     -0.8044953784     0.8651310068
H       -2.1646834141     -0.0071914697     -0.3651475466
H       -1.3328468541     0.8099937448     0.8750120773
--------------------------------------------------------------
 ----------------------------------------------------------------
             Standard Nuclear Orientation (Angstroms)
    I     Atom           X                Y                Z
 ----------------------------------------------------------------
    1      C       1.3630705312    -0.0044270680     0.3697216423
    2      C       0.2423137854     0.0006502094    -0.5545463536
    3      H       1.3102787395    -0.9453829643     0.9069245593
    4      H       1.3300248103     0.9401150701     0.9030803803
    5      H       2.1137480520     0.0126610498    -0.4156781223
    6      C      -1.1939531008     0.0055558135     0.1399582719
    7      H      -0.1464122741    -0.7963485028    -1.1928595699
    8      H      -0.1675225190     0.7888701616    -1.1905513265
    9      H      -1.3540178169    -0.8044953784     0.8651310068
   10      H      -2.1646834141    -0.0071914697    -0.3651475466
   11      H      -1.3328468541     0.8099937448     0.8750120773
 ----------------------------------------------------------------
 Nuclear Repulsion Energy =          83.10563739 hartrees
 There are       13 alpha and       13 beta electrons
 Requested basis set is 6-311+G(2df,2pd)
 There are 72 shells and 214 basis functions

 Total QAlloc Memory Limit   2000 MB
 Mega-Array Size       188 MB
 MEM_STATIC part       192 MB

                       Distance Matrix (Angstroms)
             C (  1)   C (  2)   H (  3)   H (  4)   H (  5)   C (  6)
   C (  2)  1.452719
   H (  3)  1.084791  2.042407
   H (  4)  1.085230  2.047043  1.885605
   H (  5)  1.086583  1.876618  1.820079  1.792629
   C (  6)  2.567345  1.595376  2.786342  2.797538  3.354053
   H (  7)  2.312431  1.092593  2.559932  3.096472  2.523258  1.875312
   H (  8)  2.325185  1.092593  3.096924  2.578530  2.531230  1.854022
   H (  9)  2.875432  2.282984  2.668346  3.201436  3.785976  1.098945
   H ( 10)  3.603483  2.414450  3.817556  3.836506  4.278776  1.094354
   H ( 11)  2.861218  2.275919  3.173087  2.666197  3.765719  1.098506
             H (  7)   H (  8)   H (  9)   H ( 10)
   H (  8)  1.585361
   H (  9)  2.386148  2.858744
   H ( 10)  2.319762  2.302967  1.675249
   H ( 11)  2.874727  2.371704  1.614658  1.702275
 
 A cutoff of  1.0D-09 yielded   2540 shell pairs
 There are     22636 function pairs (     27829 Cartesian)
 Smallest overlap matrix eigenvalue = 1.09E-04

 Scale SEOQF with 1.000000e-01/1.000000e-01/1.000000e-01

 Standard Electronic Orientation quadrupole field applied
 Nucleus-field energy     =     0.0000000006 hartrees
 Requested basis set is 6-31G(d)
 There are 28 shells and 58 basis functions
 A cutoff of  1.0D-09 yielded    402 shell pairs
 There are      1773 function pairs (      1968 Cartesian)
 Smallest overlap matrix eigenvalue = 6.75E-03
 Guess from superposition of atomic densities
 Warning:  Energy on first SCF cycle will be non-variational
 SAD guess density has 26.000000 electrons
 Long-range K will be added via erf
 Coulomb attenuation parameter = 0.2 bohr**(-1)
 A restricted hybrid HF-DFT SCF calculation will be
 performed using Relaxed Constraint Minimization + Pulay DIIS
 Exchange:     0.2220 Hartree-Fock + 1.0000 wB97X-D + LR-HF
 Correlation:  1.0000 wB97X-D
 Using Euler-Maclaurin-Lebedev (75,302) quadrature formula
 Dispersion:   Grimme D
 SCF converges when DIIS error is below 1.0E-04
 using 3 threads for integral computing
 -------------------------------------------------------
 OpenMP Integral computing Module                
 Release: version 1.0, May 2013, Q-Chem Inc. Pittsburgh 
 -------------------------------------------------------
 using 3 threads for integral computing
 -------------------------------------------------------
 OpenMP Integral computing Module                
 Release: version 1.0, May 2013, Q-Chem Inc. Pittsburgh 
 -------------------------------------------------------
 ---------------------------------------
  Cycle       Energy         DIIS Error
 ---------------------------------------
    1    -119.7042751825      1.03E-01
    2    -118.9904695530      9.07E-03
    3    -119.0121053746      2.61E-03
    4    -119.0262065191      1.81E-03
    5    -119.0270130627      2.90E-04 Done RCA. Switching to DIIS
    6    -119.0276075105      2.14E-04
    7    -119.0276275913      7.15E-06 Convergence criterion met
 ---------------------------------------
 SCF time:  CPU 33.57 s  wall 11.64 s
 SCF   energy in the small basis set = -119.02762759
 Total energy in the small basis set = -119.02762759
 ----------------------------------------------------
  Cycle       Energy    
 ----------------------------------------------------
    1     -16.5452981691     -1.65E+01
 Long-range K will be added via erf
 Coulomb attenuation parameter = 0.2 bohr**(-1)
 A restricted hybrid HF-DFT SCF calculation will be
 performed using Relaxed Constraint Minimization + Pulay DIIS
 Exchange:     0.2220 Hartree-Fock + 1.0000 wB97X-D + LR-HF
 Correlation:  1.0000 wB97X-D
 Using Euler-Maclaurin-Lebedev (75,302) quadrature formula
 Dispersion:   Grimme D
 SCF converges when DIIS error is below 1.0E-05
 Basis2 calculation detected. Using small basis as guess for larger.
 SCFMinFind is unable to tell whether the solution found is close.
 Resetting ReadMinima to 0 and attempting to follow guess.
 SCFMinFind following SCF Guess.
 using 3 threads for integral computing
 -------------------------------------------------------
 OpenMP Integral computing Module                
 Release: version 1.0, May 2013, Q-Chem Inc. Pittsburgh 
 -------------------------------------------------------
 using 3 threads for integral computing
 -------------------------------------------------------
 OpenMP Integral computing Module                
 Release: version 1.0, May 2013, Q-Chem Inc. Pittsburgh 
 -------------------------------------------------------
 ---------------------------------------
  Cycle       Energy         DIIS Error
 ---------------------------------------
    1    -119.0494522670      4.22E-03
    2    -119.0714994631      6.45E-04 Done RCA. Switching to DIIS
    3    -119.0724147504      4.67E-04
    4    -119.0736102540      4.56E-05
    5    -119.0736259372      9.32E-06 Convergence criterion met
 ---------------------------------------
 SCF time:  CPU 86.33 s  wall 29.16 s
 SCF   energy in the final basis set = -119.07362594
 Total energy in the final basis set = -119.07362594
 
 --------------------------------------------------------------
 
                    Orbital Energies (a.u.)
 --------------------------------------------------------------
 
 Alpha MOs
 -- Occupied --
-10.2769 -10.2752 -10.2624  -0.8951  -0.7901  -0.6865  -0.5515  -0.5281
 -0.5032  -0.4656  -0.4321  -0.3831  -0.3758
 -- Virtual --
  0.0672   0.0845   0.0896   0.0987   0.1223   0.1260   0.1314   0.1422
  0.1487   0.1597   0.1814   0.1927   0.2190   0.2362   0.2403   0.2643
  0.2779   0.2793   0.2856   0.3032   0.3280   0.3426   0.4527   0.4563
  0.4765   0.5134   0.5166   0.5332   0.5396   0.5644   0.5870   0.6015
  0.6250   0.6279   0.6305   0.6430   0.6486   0.6640   0.7090   0.7232
  0.7257   0.7675   0.8242   0.8581   0.8730   0.8794   0.8978   0.9713
  1.0083   1.0219   1.0329   1.0829   1.1310   1.1628   1.1980   1.2190
  1.2277   1.2453   1.2857   1.3005   1.3329   1.3368   1.3403   1.3610
  1.3865   1.3960   1.4209   1.4279   1.4616   1.4656   1.4818   1.4962
  1.5585   1.5794   1.6014   1.6030   1.6067   1.6222   1.6432   1.6926
  1.7972   2.4155   2.4241   2.4807   2.5183   2.5812   2.5924   2.6368
  2.6528   2.7166   2.7376   2.7553   2.8116   2.8631   2.9000   2.9010
  2.9469   2.9543   2.9992   3.0019   3.0567   3.0868   3.1094   3.1162
  3.1443   3.1494   3.1820   3.1939   3.2411   3.2598   3.2707   3.2816
  3.3197   3.3450   3.3611   3.3839   3.4116   3.4310   3.4465   3.4567
  3.4880   3.4983   3.5176   3.5341   3.5471   3.5646   3.5779   3.5923
  3.6118   3.6156   3.6406   3.6872   3.7111   3.7457   3.7823   3.7928
  3.8594   3.8683   3.9067   3.9268   3.9389   3.9642   3.9835   4.0268
  4.0745   4.1195   4.1231   4.1330   4.1493   4.1847   4.2024   4.2713
  4.2941   4.3162   4.3390   4.3744   4.3904   4.4567   4.4632   4.4759
  4.4964   4.5670   4.5954   4.6568   4.7397   4.8262   4.8384   4.8534
  4.9266   4.9390   4.9453   4.9893   5.0200   5.0457   5.1040   5.1211
  5.1361   5.1679   5.2438   5.2672   5.3098   5.3392   5.3712   5.4195
  5.4488   5.4884   5.5906   5.6040   5.6962   5.7292   5.8130   5.8436
  6.1791   6.2952   6.3818   6.4405   6.4557   6.6495  25.2157  25.3847
 25.5091
 --------------------------------------------------------------
 
 -----------------------------------------------------------------
                    Cartesian Multipole Moments
 -----------------------------------------------------------------
    Charge (ESU x 10^10)
                -0.0000
    Dipole Moment (Debye)
         X       0.0174      Y      -0.0057      Z      -0.0250
       Tot       0.0310
    Quadrupole Moments (Debye-Ang)
        XX     -22.1462     XY       0.0701     YY     -21.7684
        XZ       0.4252     YZ       0.0085     ZZ     -22.1177
    Octopole Moments (Debye-Ang^2)
       XXX      -7.5048    XXY       0.0081    XYY      -0.6091
       YYY      -0.0605    XXZ      -1.8928    XYZ      -0.0278
       YYZ       0.9253    XZZ      -2.1525    YZZ      -0.0238
       ZZZ      -0.1325
    Hexadecapole Moments (Debye-Ang^3)
      XXXX    -209.8141   XXXY       0.6738   XXYY     -42.9006
      XYYY       0.1401   YYYY     -43.7941   XXXZ      -6.1450
      XXYZ      -0.0003   XYYZ       0.3887   YYYZ       0.0176
      XXZZ     -45.6551   XYZZ      -0.0126   YYZZ     -17.5743
      XZZZ      -2.4085   YZZZ       0.0423   ZZZZ     -71.9297
 -----------------------------------------------------------------
Archival summary:
1\1\cn0821\SP\ProcedureUnspecified\BasisUnspecified\38\r0852400\SunApr1207:00:182020SunApr1207:00:182020\0\\#,ProcedureUnspecified,BasisUnspecified,\\0,1\C\H,1,1.09259\H,1,1.09259,2,93.0216\C,1,1.45272,2,130.063,3,-155.633,0\H,4,1.08479,1,106.294,2,-42.5332,0\H,4,1.08523,1,106.628,2,-172.469,0\H,4,1.08658,1,94.1896,2,73.8715,0\C,1,1.59538,2,86.3459,3,84.8262,0\H,8,1.09435,1,126.699,2,-46.0185,0\H,8,1.09851,1,114.04,2,-173.806,0\H,8,1.09894,1,114.59,2,78.7214,0\\\@

 Total job time:  44.96s(wall), 124.99s(cpu) 
 Sun Apr 12 07:00:18 2020

        *************************************************************
        *                                                           *
        *  Thank you very much for using Q-Chem.  Have a nice day.  *
        *                                                           *
        *************************************************************


