                  Welcome to Q-Chem
     A Quantum Leap Into The Future Of Chemistry


 Q-Chem 5.2 (devel), Q-Chem, Inc., Pleasanton, CA (2019)

 Yihan Shao,  Zhengting Gan,  E. Epifanovsky,  A. T. B. Gilbert,  M. Wormit,  
 J. Kussmann,  A. W. Lange,  A. Behn,  Jia Deng,  Xintian Feng,  D. Ghosh,  
 M. Goldey,  P. R. Horn,  L. D. Jacobson,  I. Kaliman,  T. Kus,  A. Landau,  
 Jie Liu,  E. I. Proynov,  R. M. Richard,  R. P. Steele,  E. J. Sundstrom,  
 H. L. Woodcock III,  P. M. Zimmerman,  D. Zuev,  B. Alam,  B. Albrecht,  
 E. Alguire,  S. A. Baeppler,  D. Barton,  Z. Benda,  Y. A. Bernard,  
 E. J. Berquist,  K. B. Bravaya,  H. Burton,  K. Carter-Fenk,  D. Casanova,  
 Chun-Min Chang,  Yunqing Chen,  A. Chien,  K. D. Closser,  M. P. Coons,  
 S. Coriani,  S. Dasgupta,  A. L. Dempwolff,  M. Diedenhofen,  Hainam Do,  
 R. G. Edgar,  Po-Tung Fang,  S. Faraji,  S. Fatehi,  Qingguo Feng,  
 J. Fosso-Tande,  J. Gayvert,  Qinghui Ge,  A. Ghysels,  G. Gidofalvi,  
 J. Gomes,  J. Gonthier,  A. Gunina,  D. Hait,  M. W. D. Hanson-Heine,  
 P. H. P. Harbach,  A. W. Hauser,  M. F. Herbst,  J. E. Herr,  
 E. G. Hohenstein,  Z. C. Holden,  Kerwin Hui,  B. C. Huynh,  T.-C. Jagau,  
 Hyunjun Ji,  B. Kaduk,  K. Khistyaev,  Jaehoon Kim,  P. Klunzinger,  K. Koh,  
 D. Kosenkov,  L. Koulias,  T. Kowalczyk,  C. M. Krauter,  A. Kunitsa,  
 Ka Un Lao,  A. Laurent,  K. V. Lawler,  Joonho Lee,  D. Lefrancois,  
 S. Lehtola,  D. S. Levine,  Yi-Pei Li,  You-Sheng Lin,  Fenglai Liu,  
 Kuan-Yu Liu,  E. Livshits,  M. Loipersberger,  A. Luenser,  P. Manohar,  
 E. Mansoor,  S. F. Manzer,  Shan-Ping Mao,  Yuezhi Mao,  N. Mardirossian,  
 A. V. Marenich,  T. Markovich,  L. A. Martinez-Martinez,  S. A. Maurer,  
 N. J. Mayhall,  S. C. McKenzie,  J.-M. Mewes,  P. Morgante,  A. F. Morrison,  
 J. W. Mullinax,  K. Nanda,  T. S. Nguyen-Beck,  R. Olivares-Amaya,  
 J. A. Parkhill,  S. K. Paul,  Zheng Pei,  T. M. Perrine,  F. Plasser,  
 P. Pokhilko,  S. Prager,  A. Prociuk,  E. Ramos,  B. Rana,  D. R. Rehn,  
 F. Rob,  M. Scheurer,  M. Schneider,  N. Sergueev,  S. M. Sharada,  
 S. Sharma,  D. W. Small,  T. Stauch,  C. J. Stein,  T. Stein,  Yu-Chuan Su,  
 S. P. Veccham,  A. J. W. Thom,  A. Tkatchenko,  T. Tsuchimochi,  
 N. M. Tubman,  L. Vogt,  M. L. Vidal,  O. Vydrov,  M. A. Watson,  J. Wenzel,  
 M. de Wergifosse,  T. A. Wesolowski,  A. White,  J. Witte,  A. Yamada,  
 Jun Yang,  K. Yao,  S. Yeganeh,  S. R. Yost,  Zhi-Qiang You,  A. Zech,  
 Igor Ying Zhang,  Xing Zhang,  Yan Zhao,  Ying Zhu,  B. R. Brooks,  
 G. K. L. Chan,  C. J. Cramer,  M. S. Gordon,  W. J. Hehre,  A. Klamt,  
 M. W. Schmidt,  C. D. Sherrill,  D. G. Truhlar,  A. Aspuru-Guzik,  R. Baer,  
 A. T. Bell,  N. A. Besley,  Jeng-Da Chai,  A. E. DePrince, III,  
 R. A. DiStasio Jr.,  A. Dreuw,  B. D. Dunietz,  T. R. Furlani,  
 Chao-Ping Hsu,  Yousung Jung,  Jing Kong,  D. S. Lambrecht,  WanZhen Liang,  
 C. Ochsenfeld,  V. A. Rassolov,  L. V. Slipchenko,  J. E. Subotnik,  
 T. Van Voorhis,  J. M. Herbert,  A. I. Krylov,  P. M. W. Gill,  M. Head-Gordon

 Contributors to earlier versions of Q-Chem not listed above: 
 R. D. Adamson,  B. Austin,  J. Baker,  G. J. O. Beran,  K. Brandhorst,  
 S. T. Brown,  E. F. C. Byrd,  A. K. Chakraborty,  C.-L. Cheng,  
 Siu Hung Chien,  D. M. Chipman,  D. L. Crittenden,  H. Dachsel,  
 R. J. Doerksen,  A. D. Dutoi,  L. Fusti-Molnar,  W. A. Goddard III,  
 A. Golubeva-Zadorozhnaya,  S. R. Gwaltney,  G. Hawkins,  A. Heyden,  
 S. Hirata,  G. Kedziora,  F. J. Keil,  C. Kelley,  Jihan Kim,  R. A. King,  
 R. Z. Khaliullin,  P. P. Korambath,  W. Kurlancheek,  A. M. Lee,  M. S. Lee,  
 S. V. Levchenko,  Ching Yeh Lin,  D. Liotard,  R. C. Lochan,  I. Lotan,  
 P. E. Maslen,  N. Nair,  D. P. O'Neill,  D. Neuhauser,  E. Neuscamman,  
 C. M. Oana,  R. Olson,  B. Peters,  R. Peverati,  P. A. Pieniazek,  
 Y. M. Rhee,  J. Ritchie,  M. A. Rohrdanz,  E. Rosta,  N. J. Russ,  
 H. F. Schaefer III,  N. E. Schultz,  N. Shenvi,  A. C. Simmonett,  A. Sodt,  
 D. Stuck,  K. S. Thanthiriwatte,  V. Vanovschi,  Tao Wang,  A. Warshel,  
 C. F. Williams,  Q. Wu,  X. Xu,  W. Zhang

 Please cite Q-Chem as follows:
 Y. Shao et al., Mol. Phys. 113, 184-215 (2015)
 DOI: 10.1080/00268976.2014.952696

 Q-Chem 5.2.2 for Intel X86 EM64T Linux

 Parts of Q-Chem use Armadillo 9.800.1 (Horizon Scraper).
 http://arma.sourceforge.net/

 Q-Chem begins on Sun Apr 12 06:47:44 2020  

Host: cn0821
0

     Scratch files written to /tmp/ypli/6721342.srvc1/qchem181453//
Warning:  Did not find "$end" marker in "$molecule" section

Checking the input file for inconsistencies... 	...done.

--------------------------------------------------------------
User input:
--------------------------------------------------------------
$rem
   JOBTYPE  sp
   EXCHANGE   omegaB97X-D
   BASIS   6-311+G(2df,2pd)
   max_scf_cycles   250
   geom_opt_max_cycles   1500
   basis2 6-31G*
   scf_algorithm rca_diis
   SYM_IGNORE  TRUE
   print_input   true
   geom_opt_dmax   80
   pop_mulliken false
   XC_GRID 000075000302
$end

$molecule
0 1
C       1.2669032635     0.0271463119     0.2601683731
C       0.0012108494     -0.0000906718     -0.5873772155
H       1.2987598488     -0.8702049417     0.8816281917
H       1.3117000542     0.8935322032     0.9227121275
H       2.1650372794     0.0096603854     -0.3581540839
C       -1.2668357743     -0.0272548041     0.2586187255
H       -0.0869740851     -0.8705200026     -1.2418488802
H       0.0834098445     0.8707786034     -1.2420426961
H       -1.3115093172     -0.8907565621     0.9251419770
H       -2.1633206574     -0.0097962138     -0.3618502390
H       -1.2983813665     0.8675063583     0.8840487389
--------------------------------------------------------------
 ----------------------------------------------------------------
             Standard Nuclear Orientation (Angstroms)
    I     Atom           X                Y                Z
 ----------------------------------------------------------------
    1      C       1.2669032635     0.0271463119     0.2601683731
    2      C       0.0012108494    -0.0000906718    -0.5873772155
    3      H       1.2987598488    -0.8702049417     0.8816281917
    4      H       1.3117000542     0.8935322032     0.9227121275
    5      H       2.1650372794     0.0096603854    -0.3581540839
    6      C      -1.2668357743    -0.0272548041     0.2586187255
    7      H      -0.0869740851    -0.8705200026    -1.2418488802
    8      H       0.0834098445     0.8707786034    -1.2420426961
    9      H      -1.3115093172    -0.8907565621     0.9251419770
   10      H      -2.1633206574    -0.0097962138    -0.3618502390
   11      H      -1.2983813665     0.8675063583     0.8840487389
 ----------------------------------------------------------------
 Nuclear Repulsion Energy =          82.74441116 hartrees
 There are       13 alpha and       13 beta electrons
 Requested basis set is 6-311+G(2df,2pd)
 There are 72 shells and 214 basis functions

 Total QAlloc Memory Limit   2000 MB
 Mega-Array Size       188 MB
 MEM_STATIC part       192 MB

                       Distance Matrix (Angstroms)
             C (  1)   C (  2)   H (  3)   H (  4)   H (  5)   C (  6)
   C (  2)  1.523500
   H (  3)  1.092001  2.144460
   H (  4)  1.091602  2.190049  1.764263
   H (  5)  1.090538  2.175956  1.749760  1.774833
   C (  6)  2.534323  1.524595  2.771459  2.817395  3.487051
   H (  7)  2.212430  1.092592  2.535629  3.123058  2.574333  2.086761
   H (  8)  2.090218  1.092592  3.003011  2.489052  2.419908  2.209437
   H (  9)  2.816549  2.191856  2.610713  3.172526  3.813656  1.091735
   H ( 10)  3.486360  2.176270  3.777902  3.813381  4.328403  1.090400
   H ( 11)  2.770581  2.146336  3.124866  2.610498  3.778126  1.092133
             H (  7)   H (  8)   H (  9)   H ( 10)
   H (  8)  1.749615
   H (  9)  2.489125  3.121778
   H ( 10)  2.413806  2.568647  1.777083
   H ( 11)  3.001280  2.535670  1.758792  1.752154
 
 A cutoff of  1.0D-09 yielded   2534 shell pairs
 There are     22588 function pairs (     27769 Cartesian)
 Smallest overlap matrix eigenvalue = 8.94E-05

 Scale SEOQF with 1.000000e-01/1.000000e-01/1.000000e-01

 Standard Electronic Orientation quadrupole field applied
 Nucleus-field energy     =     0.0000000006 hartrees
 Requested basis set is 6-31G(d)
 There are 28 shells and 58 basis functions
 A cutoff of  1.0D-09 yielded    402 shell pairs
 There are      1773 function pairs (      1968 Cartesian)
 Smallest overlap matrix eigenvalue = 6.84E-03
 Guess from superposition of atomic densities
 Warning:  Energy on first SCF cycle will be non-variational
 SAD guess density has 26.000000 electrons
 Long-range K will be added via erf
 Coulomb attenuation parameter = 0.2 bohr**(-1)
 A restricted hybrid HF-DFT SCF calculation will be
 performed using Relaxed Constraint Minimization + Pulay DIIS
 Exchange:     0.2220 Hartree-Fock + 1.0000 wB97X-D + LR-HF
 Correlation:  1.0000 wB97X-D
 Using Euler-Maclaurin-Lebedev (75,302) quadrature formula
 Dispersion:   Grimme D
 SCF converges when DIIS error is below 1.0E-04
 using 3 threads for integral computing
 -------------------------------------------------------
 OpenMP Integral computing Module                
 Release: version 1.0, May 2013, Q-Chem Inc. Pittsburgh 
 -------------------------------------------------------
 using 3 threads for integral computing
 -------------------------------------------------------
 OpenMP Integral computing Module                
 Release: version 1.0, May 2013, Q-Chem Inc. Pittsburgh 
 -------------------------------------------------------
 ---------------------------------------
  Cycle       Energy         DIIS Error
 ---------------------------------------
    1    -119.6204971717      1.00E-01
    2    -119.0638416341      9.00E-03
    3    -119.0849277019      2.47E-03
    4    -119.0987907695      1.69E-03
    5    -119.0994931220      2.69E-04 Done RCA. Switching to DIIS
    6    -119.1000074684      1.98E-04
    7    -119.1000245289      4.63E-06 Convergence criterion met
 ---------------------------------------
 SCF time:  CPU 32.85 s  wall 11.34 s
 SCF   energy in the small basis set = -119.10002453
 Total energy in the small basis set = -119.10002453
 ----------------------------------------------------
  Cycle       Energy    
 ----------------------------------------------------
    1     -16.5393552068     -1.65E+01
 Long-range K will be added via erf
 Coulomb attenuation parameter = 0.2 bohr**(-1)
 A restricted hybrid HF-DFT SCF calculation will be
 performed using Relaxed Constraint Minimization + Pulay DIIS
 Exchange:     0.2220 Hartree-Fock + 1.0000 wB97X-D + LR-HF
 Correlation:  1.0000 wB97X-D
 Using Euler-Maclaurin-Lebedev (75,302) quadrature formula
 Dispersion:   Grimme D
 SCF converges when DIIS error is below 1.0E-05
 Basis2 calculation detected. Using small basis as guess for larger.
 SCFMinFind is unable to tell whether the solution found is close.
 Resetting ReadMinima to 0 and attempting to follow guess.
 SCFMinFind following SCF Guess.
 using 3 threads for integral computing
 -------------------------------------------------------
 OpenMP Integral computing Module                
 Release: version 1.0, May 2013, Q-Chem Inc. Pittsburgh 
 -------------------------------------------------------
 using 3 threads for integral computing
 -------------------------------------------------------
 OpenMP Integral computing Module                
 Release: version 1.0, May 2013, Q-Chem Inc. Pittsburgh 
 -------------------------------------------------------
 ---------------------------------------
  Cycle       Energy         DIIS Error
 ---------------------------------------
    1    -119.1191755651      4.21E-03
    2    -119.1412314389      5.99E-04 Done RCA. Switching to DIIS
    3    -119.1420683204      4.20E-04
    4    -119.1430342432      4.56E-05
    5    -119.1430490202      1.02E-05
    6    -119.1430497131      3.90E-06 Convergence criterion met
 ---------------------------------------
 SCF time:  CPU 94.69 s  wall 31.96 s
 SCF   energy in the final basis set = -119.14304971
 Total energy in the final basis set = -119.14304971
 
 --------------------------------------------------------------
 
                    Orbital Energies (a.u.)
 --------------------------------------------------------------
 
 Alpha MOs
 -- Occupied --
-10.2740 -10.2653 -10.2652  -0.8815  -0.7775  -0.6777  -0.5461  -0.5244
 -0.4843  -0.4643  -0.4225  -0.4167  -0.4012
 -- Virtual --
  0.0691   0.0858   0.0910   0.0990   0.1250   0.1296   0.1331   0.1427
  0.1436   0.1714   0.1716   0.1913   0.2325   0.2401   0.2441   0.2616
  0.2818   0.2846   0.3113   0.3136   0.3335   0.3494   0.4584   0.4678
  0.4709   0.5114   0.5116   0.5184   0.5460   0.5605   0.5841   0.5864
  0.6240   0.6249   0.6418   0.6452   0.6455   0.6702   0.7089   0.7231
  0.7264   0.7673   0.8185   0.8572   0.8641   0.8814   0.8849   0.9596
  1.0022   1.0530   1.0556   1.1382   1.1387   1.1662   1.1951   1.2114
  1.2218   1.2355   1.2723   1.2804   1.2895   1.3018   1.3280   1.3779
  1.3826   1.3951   1.4012   1.4470   1.4550   1.4727   1.4791   1.4805
  1.5220   1.5775   1.6102   1.6220   1.6428   1.6440   1.6899   1.6908
  1.7417   2.3773   2.4688   2.4735   2.5052   2.5406   2.5589   2.5996
  2.6359   2.7128   2.8120   2.8337   2.8365   2.9103   2.9215   2.9288
  2.9311   2.9614   2.9980   3.0232   3.0522   3.0702   3.0766   3.0989
  3.1286   3.1297   3.1781   3.1985   3.2211   3.2295   3.2832   3.3101
  3.3247   3.3307   3.3357   3.3522   3.3777   3.3863   3.3944   3.4380
  3.4695   3.4919   3.5061   3.5241   3.5593   3.5774   3.6020   3.6205
  3.6235   3.6749   3.6861   3.7022   3.7792   3.7823   3.8541   3.8849
  3.9168   3.9320   3.9511   3.9623   3.9816   3.9946   4.0462   4.0660
  4.0801   4.1045   4.1186   4.1357   4.1535   4.1585   4.1904   4.2060
  4.2156   4.2511   4.2587   4.3525   4.3706   4.4169   4.4224   4.4308
  4.4444   4.5679   4.6076   4.6285   4.6616   4.8102   4.8213   4.8891
  4.9400   4.9631   4.9638   4.9871   5.0313   5.0555   5.0575   5.0913
  5.1587   5.2413   5.2469   5.2789   5.3133   5.3363   5.3440   5.3544
  5.3731   5.4124   5.4595   5.4912   5.5331   5.5776   5.6324   5.7448
  5.9633   6.3808   6.3843   6.3929   6.4171   6.4665  25.2029  25.4416
 25.4525
 --------------------------------------------------------------
 
 -----------------------------------------------------------------
                    Cartesian Multipole Moments
 -----------------------------------------------------------------
    Charge (ESU x 10^10)
                 0.0000
    Dipole Moment (Debye)
         X       0.0020      Y       0.0003      Z      -0.0810
       Tot       0.0810
    Quadrupole Moments (Debye-Ang)
        XX     -22.1518     XY       0.2410     YY     -21.3797
        XZ       0.0087     YZ      -0.0002     ZZ     -21.8571
    Octopole Moments (Debye-Ang^2)
       XXX       0.0064    XXY      -0.0001    XYY       0.0174
       YYY       0.0054    XXZ      -1.5709    XYZ       0.0328
       YYZ       0.5202    XZZ      -0.0308    YZZ       0.0026
       ZZZ      -0.3668
    Hexadecapole Moments (Debye-Ang^3)
      XXXX    -202.2802   XXXY      -1.5387   XXYY     -42.1975
      XYYY      -1.3815   YYYY     -44.1722   XXXZ       0.0003
      XXYZ       0.0017   XYYZ       0.0100   YYYZ      -0.0009
      XXZZ     -45.2680   XYZZ       0.1254   YYZZ     -17.1132
      XZZZ      -0.0346   YZZZ      -0.0040   ZZZZ     -72.2441
 -----------------------------------------------------------------
Archival summary:
1\1\cn0821\SP\ProcedureUnspecified\BasisUnspecified\38\r0852400\SunApr1206:48:322020SunApr1206:48:322020\0\\#,ProcedureUnspecified,BasisUnspecified,\\0,1\C\H,1,1.09259\H,1,1.09259,2,106.389\C,1,1.5235,2,104.867,3,121.677,0\H,4,1.09054,1,111.623,2,-57.4476,0\H,4,1.0916,1,112.702,2,65.4082,0\H,4,1.092,1,109.035,2,-174.938,0\C,1,1.52459,2,114.159,3,-114.755,0\H,8,1.0904,1,111.578,2,58.5748,0\H,8,1.09173,1,112.762,2,-178.29,0\H,8,1.09213,1,109.099,2,-59.1889,0\\\@

 Total job time:  47.73s(wall), 132.93s(cpu) 
 Sun Apr 12 06:48:32 2020

        *************************************************************
        *                                                           *
        *  Thank you very much for using Q-Chem.  Have a nice day.  *
        *                                                           *
        *************************************************************


