                  Welcome to Q-Chem
     A Quantum Leap Into The Future Of Chemistry


 Q-Chem 5.2 (devel), Q-Chem, Inc., Pleasanton, CA (2019)

 Yihan Shao,  Zhengting Gan,  E. Epifanovsky,  A. T. B. Gilbert,  M. Wormit,  
 J. Kussmann,  A. W. Lange,  A. Behn,  Jia Deng,  Xintian Feng,  D. Ghosh,  
 M. Goldey,  P. R. Horn,  L. D. Jacobson,  I. Kaliman,  T. Kus,  A. Landau,  
 Jie Liu,  E. I. Proynov,  R. M. Richard,  R. P. Steele,  E. J. Sundstrom,  
 H. L. Woodcock III,  P. M. Zimmerman,  D. Zuev,  B. Alam,  B. Albrecht,  
 E. Alguire,  S. A. Baeppler,  D. Barton,  Z. Benda,  Y. A. Bernard,  
 E. J. Berquist,  K. B. Bravaya,  H. Burton,  K. Carter-Fenk,  D. Casanova,  
 Chun-Min Chang,  Yunqing Chen,  A. Chien,  K. D. Closser,  M. P. Coons,  
 S. Coriani,  S. Dasgupta,  A. L. Dempwolff,  M. Diedenhofen,  Hainam Do,  
 R. G. Edgar,  Po-Tung Fang,  S. Faraji,  S. Fatehi,  Qingguo Feng,  
 J. Fosso-Tande,  J. Gayvert,  Qinghui Ge,  A. Ghysels,  G. Gidofalvi,  
 J. Gomes,  J. Gonthier,  A. Gunina,  D. Hait,  M. W. D. Hanson-Heine,  
 P. H. P. Harbach,  A. W. Hauser,  M. F. Herbst,  J. E. Herr,  
 E. G. Hohenstein,  Z. C. Holden,  Kerwin Hui,  B. C. Huynh,  T.-C. Jagau,  
 Hyunjun Ji,  B. Kaduk,  K. Khistyaev,  Jaehoon Kim,  P. Klunzinger,  K. Koh,  
 D. Kosenkov,  L. Koulias,  T. Kowalczyk,  C. M. Krauter,  A. Kunitsa,  
 Ka Un Lao,  A. Laurent,  K. V. Lawler,  Joonho Lee,  D. Lefrancois,  
 S. Lehtola,  D. S. Levine,  Yi-Pei Li,  You-Sheng Lin,  Fenglai Liu,  
 Kuan-Yu Liu,  E. Livshits,  M. Loipersberger,  A. Luenser,  P. Manohar,  
 E. Mansoor,  S. F. Manzer,  Shan-Ping Mao,  Yuezhi Mao,  N. Mardirossian,  
 A. V. Marenich,  T. Markovich,  L. A. Martinez-Martinez,  S. A. Maurer,  
 N. J. Mayhall,  S. C. McKenzie,  J.-M. Mewes,  P. Morgante,  A. F. Morrison,  
 J. W. Mullinax,  K. Nanda,  T. S. Nguyen-Beck,  R. Olivares-Amaya,  
 J. A. Parkhill,  S. K. Paul,  Zheng Pei,  T. M. Perrine,  F. Plasser,  
 P. Pokhilko,  S. Prager,  A. Prociuk,  E. Ramos,  B. Rana,  D. R. Rehn,  
 F. Rob,  M. Scheurer,  M. Schneider,  N. Sergueev,  S. M. Sharada,  
 S. Sharma,  D. W. Small,  T. Stauch,  C. J. Stein,  T. Stein,  Yu-Chuan Su,  
 S. P. Veccham,  A. J. W. Thom,  A. Tkatchenko,  T. Tsuchimochi,  
 N. M. Tubman,  L. Vogt,  M. L. Vidal,  O. Vydrov,  M. A. Watson,  J. Wenzel,  
 M. de Wergifosse,  T. A. Wesolowski,  A. White,  J. Witte,  A. Yamada,  
 Jun Yang,  K. Yao,  S. Yeganeh,  S. R. Yost,  Zhi-Qiang You,  A. Zech,  
 Igor Ying Zhang,  Xing Zhang,  Yan Zhao,  Ying Zhu,  B. R. Brooks,  
 G. K. L. Chan,  C. J. Cramer,  M. S. Gordon,  W. J. Hehre,  A. Klamt,  
 M. W. Schmidt,  C. D. Sherrill,  D. G. Truhlar,  A. Aspuru-Guzik,  R. Baer,  
 A. T. Bell,  N. A. Besley,  Jeng-Da Chai,  A. E. DePrince, III,  
 R. A. DiStasio Jr.,  A. Dreuw,  B. D. Dunietz,  T. R. Furlani,  
 Chao-Ping Hsu,  Yousung Jung,  Jing Kong,  D. S. Lambrecht,  WanZhen Liang,  
 C. Ochsenfeld,  V. A. Rassolov,  L. V. Slipchenko,  J. E. Subotnik,  
 T. Van Voorhis,  J. M. Herbert,  A. I. Krylov,  P. M. W. Gill,  M. Head-Gordon

 Contributors to earlier versions of Q-Chem not listed above: 
 R. D. Adamson,  B. Austin,  J. Baker,  G. J. O. Beran,  K. Brandhorst,  
 S. T. Brown,  E. F. C. Byrd,  A. K. Chakraborty,  C.-L. Cheng,  
 Siu Hung Chien,  D. M. Chipman,  D. L. Crittenden,  H. Dachsel,  
 R. J. Doerksen,  A. D. Dutoi,  L. Fusti-Molnar,  W. A. Goddard III,  
 A. Golubeva-Zadorozhnaya,  S. R. Gwaltney,  G. Hawkins,  A. Heyden,  
 S. Hirata,  G. Kedziora,  F. J. Keil,  C. Kelley,  Jihan Kim,  R. A. King,  
 R. Z. Khaliullin,  P. P. Korambath,  W. Kurlancheek,  A. M. Lee,  M. S. Lee,  
 S. V. Levchenko,  Ching Yeh Lin,  D. Liotard,  R. C. Lochan,  I. Lotan,  
 P. E. Maslen,  N. Nair,  D. P. O'Neill,  D. Neuhauser,  E. Neuscamman,  
 C. M. Oana,  R. Olson,  B. Peters,  R. Peverati,  P. A. Pieniazek,  
 Y. M. Rhee,  J. Ritchie,  M. A. Rohrdanz,  E. Rosta,  N. J. Russ,  
 H. F. Schaefer III,  N. E. Schultz,  N. Shenvi,  A. C. Simmonett,  A. Sodt,  
 D. Stuck,  K. S. Thanthiriwatte,  V. Vanovschi,  Tao Wang,  A. Warshel,  
 C. F. Williams,  Q. Wu,  X. Xu,  W. Zhang

 Please cite Q-Chem as follows:
 Y. Shao et al., Mol. Phys. 113, 184-215 (2015)
 DOI: 10.1080/00268976.2014.952696

 Q-Chem 5.2.2 for Intel X86 EM64T Linux

 Parts of Q-Chem use Armadillo 9.800.1 (Horizon Scraper).
 http://arma.sourceforge.net/

 Q-Chem begins on Sun Apr 12 05:34:03 2020  

Host: cn0821
0

     Scratch files written to /tmp/ypli/6721342.srvc1/qchem170107//
Warning:  Did not find "$end" marker in "$molecule" section

Checking the input file for inconsistencies... 	...done.

--------------------------------------------------------------
User input:
--------------------------------------------------------------
$rem
   JOBTYPE  sp
   EXCHANGE   omegaB97X-D
   BASIS   6-311+G(2df,2pd)
   max_scf_cycles   250
   geom_opt_max_cycles   1500
   basis2 6-31G*
   scf_algorithm rca_diis
   SYM_IGNORE  TRUE
   print_input   true
   geom_opt_dmax   80
   pop_mulliken false
   XC_GRID 000075000302
$end

$molecule
0 1
C       1.4237499683     -0.0001624543     0.2622787416
C       -0.0000000537     0.0021997374     -0.3332171419
H       1.6685267024     -0.8847663874     0.8518836886
H       1.6721681439     0.8824140208     0.8538101720
H       2.0772418098     0.0029620034     -0.6135963131
C       -1.4237501802     -0.0001626454     0.2622784394
H       0.0000005804     -0.8559684519     -1.0128355476
H       -0.0000002919     0.8528743632     -1.0216547140
H       -1.6685268469     -0.8847662454     0.8518838955
H       -2.0772422847     0.0029628120     -0.6135962319
H       -1.6721676079     0.8824139137     0.8538100302
--------------------------------------------------------------
 ----------------------------------------------------------------
             Standard Nuclear Orientation (Angstroms)
    I     Atom           X                Y                Z
 ----------------------------------------------------------------
    1      C       1.4237499683    -0.0001624543     0.2622787416
    2      C      -0.0000000537     0.0021997374    -0.3332171419
    3      H       1.6685267024    -0.8847663874     0.8518836886
    4      H       1.6721681439     0.8824140208     0.8538101720
    5      H       2.0772418098     0.0029620034    -0.6135963131
    6      C      -1.4237501802    -0.0001626454     0.2622784394
    7      H       0.0000005804    -0.8559684519    -1.0128355476
    8      H      -0.0000002919     0.8528743632    -1.0216547140
    9      H      -1.6685268469    -0.8847662454     0.8518838955
   10      H      -2.0772422847     0.0029628120    -0.6135962319
   11      H      -1.6721676079     0.8824139137     0.8538100302
 ----------------------------------------------------------------
 Nuclear Repulsion Energy =          80.86531464 hartrees
 There are       13 alpha and       13 beta electrons
 Requested basis set is 6-311+G(2df,2pd)
 There are 72 shells and 214 basis functions

 Total QAlloc Memory Limit   2000 MB
 Mega-Array Size       188 MB
 MEM_STATIC part       192 MB

                       Distance Matrix (Angstroms)
             C (  1)   C (  2)   H (  3)   H (  4)   H (  5)   C (  6)
   C (  2)  1.543271
   H (  3)  1.090905  2.230505
   H (  4)  1.091129  2.231582  1.767185
   H (  5)  1.092803  2.096079  1.761460  1.758068
   C (  6)  2.847500  1.543271  3.269914  3.273158  3.608893
   H (  7)  2.094131  1.094684  2.502396  3.049997  2.282999  2.094131
   H (  8)  2.098386  1.094346  3.051807  2.512845  2.281183  2.098385
   H (  9)  3.269913  2.230505  3.337054  3.779309  4.119038  1.090905
   H ( 10)  3.608894  2.096079  4.119039  4.121261  4.154484  1.092803
   H ( 11)  3.273157  2.231581  3.779308  3.344336  4.121260  1.091129
             H (  7)   H (  8)   H (  9)   H ( 10)
   H (  8)  1.708866
   H (  9)  2.502397  3.051806
   H ( 10)  2.283001  2.281183  1.761461
   H ( 11)  3.049998  2.512844  1.767185  1.758067
 
 A cutoff of  1.0D-09 yielded   2478 shell pairs
 There are     22074 function pairs (     27163 Cartesian)
 Smallest overlap matrix eigenvalue = 8.58E-05

 Scale SEOQF with 1.000000e-01/1.000000e-01/1.000000e-01

 Standard Electronic Orientation quadrupole field applied
 Nucleus-field energy     =     0.0000000011 hartrees
 Requested basis set is 6-31G(d)
 There are 28 shells and 58 basis functions
 A cutoff of  1.0D-09 yielded    394 shell pairs
 There are      1765 function pairs (      1960 Cartesian)
 Smallest overlap matrix eigenvalue = 7.48E-03
 Guess from superposition of atomic densities
 Warning:  Energy on first SCF cycle will be non-variational
 SAD guess density has 26.000000 electrons
 Long-range K will be added via erf
 Coulomb attenuation parameter = 0.2 bohr**(-1)
 A restricted hybrid HF-DFT SCF calculation will be
 performed using Relaxed Constraint Minimization + Pulay DIIS
 Exchange:     0.2220 Hartree-Fock + 1.0000 wB97X-D + LR-HF
 Correlation:  1.0000 wB97X-D
 Using Euler-Maclaurin-Lebedev (75,302) quadrature formula
 Dispersion:   Grimme D
 SCF converges when DIIS error is below 1.0E-04
 using 3 threads for integral computing
 -------------------------------------------------------
 OpenMP Integral computing Module                
 Release: version 1.0, May 2013, Q-Chem Inc. Pittsburgh 
 -------------------------------------------------------
 using 3 threads for integral computing
 -------------------------------------------------------
 OpenMP Integral computing Module                
 Release: version 1.0, May 2013, Q-Chem Inc. Pittsburgh 
 -------------------------------------------------------
 ---------------------------------------
  Cycle       Energy         DIIS Error
 ---------------------------------------
    1    -119.5711444513      9.90E-02
    2    -119.0532921334      8.57E-03
    3    -119.0729859991      2.58E-03
    4    -119.0851122418      1.77E-03
    5    -119.0858952906      3.00E-04 Done RCA. Switching to DIIS
    6    -119.0864531695      2.24E-04
    7    -119.0864749488      4.11E-06 Convergence criterion met
 ---------------------------------------
 SCF time:  CPU 33.60 s  wall 11.59 s
 SCF   energy in the small basis set = -119.08647495
 Total energy in the small basis set = -119.08647495
 ----------------------------------------------------
  Cycle       Energy    
 ----------------------------------------------------
    1     -16.5209476040     -1.65E+01
 Long-range K will be added via erf
 Coulomb attenuation parameter = 0.2 bohr**(-1)
 A restricted hybrid HF-DFT SCF calculation will be
 performed using Relaxed Constraint Minimization + Pulay DIIS
 Exchange:     0.2220 Hartree-Fock + 1.0000 wB97X-D + LR-HF
 Correlation:  1.0000 wB97X-D
 Using Euler-Maclaurin-Lebedev (75,302) quadrature formula
 Dispersion:   Grimme D
 SCF converges when DIIS error is below 1.0E-05
 Basis2 calculation detected. Using small basis as guess for larger.
 SCFMinFind is unable to tell whether the solution found is close.
 Resetting ReadMinima to 0 and attempting to follow guess.
 SCFMinFind following SCF Guess.
 using 3 threads for integral computing
 -------------------------------------------------------
 OpenMP Integral computing Module                
 Release: version 1.0, May 2013, Q-Chem Inc. Pittsburgh 
 -------------------------------------------------------
 using 3 threads for integral computing
 -------------------------------------------------------
 OpenMP Integral computing Module                
 Release: version 1.0, May 2013, Q-Chem Inc. Pittsburgh 
 -------------------------------------------------------
 ---------------------------------------
  Cycle       Energy         DIIS Error
 ---------------------------------------
    1    -119.1058464108      4.21E-03
    2    -119.1278290805      5.76E-04 Done RCA. Switching to DIIS
    3    -119.1286578613      3.91E-04
    4    -119.1294970372      4.65E-05
    5    -119.1295118379      1.30E-05
    6    -119.1295128621      4.19E-06 Convergence criterion met
 ---------------------------------------
 SCF time:  CPU 95.52 s  wall 32.33 s
 SCF   energy in the final basis set = -119.12951286
 Total energy in the final basis set = -119.12951286
 
 --------------------------------------------------------------
 
                    Orbital Energies (a.u.)
 --------------------------------------------------------------
 
 Alpha MOs
 -- Occupied --
-10.2771 -10.2701 -10.2701  -0.8734  -0.7884  -0.6732  -0.5383  -0.5109
 -0.4958  -0.4728  -0.4276  -0.4005  -0.3990
 -- Virtual --
  0.0652   0.0867   0.0944   0.0993   0.1152   0.1286   0.1323   0.1525
  0.1557   0.1744   0.1871   0.2020   0.2328   0.2335   0.2392   0.2612
  0.2666   0.2808   0.2868   0.3064   0.3240   0.3653   0.4610   0.4683
  0.4839   0.4994   0.5223   0.5320   0.5454   0.5712   0.5803   0.5923
  0.5959   0.6036   0.6341   0.6473   0.6497   0.6674   0.6971   0.7181
  0.7329   0.7861   0.7998   0.8397   0.8625   0.8711   0.9291   0.9628
  0.9756   1.0129   1.0374   1.1262   1.1473   1.1495   1.1567   1.1972
  1.2356   1.2663   1.2736   1.2760   1.2928   1.2967   1.2968   1.3083
  1.3743   1.3776   1.3808   1.4539   1.4571   1.4660   1.4696   1.4807
  1.4988   1.5772   1.6029   1.6393   1.6607   1.6750   1.6824   1.6921
  1.7900   2.4014   2.4647   2.4838   2.4921   2.5317   2.5496   2.5954
  2.6366   2.6716   2.7614   2.8225   2.8583   2.8929   2.9299   2.9326
  2.9532   2.9883   3.0022   3.0201   3.0505   3.0632   3.0864   3.1089
  3.1368   3.1444   3.1554   3.1736   3.1864   3.1905   3.2053   3.2786
  3.2931   3.3185   3.3274   3.3350   3.3464   3.3551   3.3791   3.4111
  3.4477   3.4844   3.4879   3.5609   3.5632   3.5983   3.5984   3.6176
  3.6482   3.6507   3.6550   3.7255   3.7371   3.7677   3.7950   3.8555
  3.8907   3.8958   3.8995   3.9529   3.9667   3.9771   3.9837   4.0442
  4.0901   4.1266   4.1354   4.1502   4.1571   4.1683   4.1695   4.1881
  4.2345   4.2904   4.2965   4.3364   4.3417   4.4330   4.4525   4.4661
  4.4673   4.5076   4.5549   4.6074   4.7816   4.8134   4.8486   4.8706
  4.9020   4.9441   4.9719   4.9730   5.0023   5.0279   5.0672   5.0934
  5.1267   5.1390   5.2253   5.2516   5.2947   5.3044   5.3139   5.3299
  5.3497   5.3899   5.4499   5.4606   5.5829   5.6047   5.6458   5.8439
  5.9148   6.3681   6.3794   6.3956   6.3960   6.4649  25.2071  25.3990
 25.4337
 --------------------------------------------------------------
 
 -----------------------------------------------------------------
                    Cartesian Multipole Moments
 -----------------------------------------------------------------
    Charge (ESU x 10^10)
                 0.0000
    Dipole Moment (Debye)
         X       0.0000      Y      -0.0018      Z      -0.1753
       Tot       0.1753
    Quadrupole Moments (Debye-Ang)
        XX     -21.9234     XY      -0.0000     YY     -21.4599
        XZ       0.0000     YZ      -0.0156     ZZ     -21.7595
    Octopole Moments (Debye-Ang^2)
       XXX       0.0000    XXY       0.0166    XYY       0.0000
       YYY      -0.0421    XXZ      -2.0808    XYZ       0.0000
       YYZ      -0.3733    XZZ       0.0000    YZZ       0.0002
       ZZZ      -3.8163
    Hexadecapole Moments (Debye-Ang^3)
      XXXX    -251.2297   XXXY      -0.0000   XXYY     -47.8567
      XYYY      -0.0000   YYYY     -44.0541   XXXZ       0.0000
      XXYZ      -0.0175   XYYZ      -0.0000   YYYZ       0.0129
      XXZZ     -48.6584   XYZZ       0.0000   YYZZ     -15.6234
      XZZZ      -0.0000   YZZZ      -0.0069   ZZZZ     -60.3163
 -----------------------------------------------------------------
Archival summary:
1\1\cn0821\SP\ProcedureUnspecified\BasisUnspecified\38\r0852400\SunApr1205:34:522020SunApr1205:34:522020\0\\#,ProcedureUnspecified,BasisUnspecified,\\0,1\C\H,1,1.09435\H,1,1.09468,2,102.64\C,1,1.54327,2,104.119,3,-107.957,0\H,4,1.09091,1,114.632,2,170.196,0\H,4,1.09113,1,114.708,2,-63.7489,0\H,4,1.0928,1,104.029,2,53.0507,0\C,1,1.54327,2,104.119,3,107.957,0\H,8,1.09091,1,114.632,2,-170.196,0\H,8,1.09113,1,114.708,2,63.7488,0\H,8,1.0928,1,104.029,2,-53.0507,0\\\@

 Total job time:  48.13s(wall), 134.26s(cpu) 
 Sun Apr 12 05:34:52 2020

        *************************************************************
        *                                                           *
        *  Thank you very much for using Q-Chem.  Have a nice day.  *
        *                                                           *
        *************************************************************


