                  Welcome to Q-Chem
     A Quantum Leap Into The Future Of Chemistry


 Q-Chem 5.2 (devel), Q-Chem, Inc., Pleasanton, CA (2019)

 Yihan Shao,  Zhengting Gan,  E. Epifanovsky,  A. T. B. Gilbert,  M. Wormit,  
 J. Kussmann,  A. W. Lange,  A. Behn,  Jia Deng,  Xintian Feng,  D. Ghosh,  
 M. Goldey,  P. R. Horn,  L. D. Jacobson,  I. Kaliman,  T. Kus,  A. Landau,  
 Jie Liu,  E. I. Proynov,  R. M. Richard,  R. P. Steele,  E. J. Sundstrom,  
 H. L. Woodcock III,  P. M. Zimmerman,  D. Zuev,  B. Alam,  B. Albrecht,  
 E. Alguire,  S. A. Baeppler,  D. Barton,  Z. Benda,  Y. A. Bernard,  
 E. J. Berquist,  K. B. Bravaya,  H. Burton,  K. Carter-Fenk,  D. Casanova,  
 Chun-Min Chang,  Yunqing Chen,  A. Chien,  K. D. Closser,  M. P. Coons,  
 S. Coriani,  S. Dasgupta,  A. L. Dempwolff,  M. Diedenhofen,  Hainam Do,  
 R. G. Edgar,  Po-Tung Fang,  S. Faraji,  S. Fatehi,  Qingguo Feng,  
 J. Fosso-Tande,  J. Gayvert,  Qinghui Ge,  A. Ghysels,  G. Gidofalvi,  
 J. Gomes,  J. Gonthier,  A. Gunina,  D. Hait,  M. W. D. Hanson-Heine,  
 P. H. P. Harbach,  A. W. Hauser,  M. F. Herbst,  J. E. Herr,  
 E. G. Hohenstein,  Z. C. Holden,  Kerwin Hui,  B. C. Huynh,  T.-C. Jagau,  
 Hyunjun Ji,  B. Kaduk,  K. Khistyaev,  Jaehoon Kim,  P. Klunzinger,  K. Koh,  
 D. Kosenkov,  L. Koulias,  T. Kowalczyk,  C. M. Krauter,  A. Kunitsa,  
 Ka Un Lao,  A. Laurent,  K. V. Lawler,  Joonho Lee,  D. Lefrancois,  
 S. Lehtola,  D. S. Levine,  Yi-Pei Li,  You-Sheng Lin,  Fenglai Liu,  
 Kuan-Yu Liu,  E. Livshits,  M. Loipersberger,  A. Luenser,  P. Manohar,  
 E. Mansoor,  S. F. Manzer,  Shan-Ping Mao,  Yuezhi Mao,  N. Mardirossian,  
 A. V. Marenich,  T. Markovich,  L. A. Martinez-Martinez,  S. A. Maurer,  
 N. J. Mayhall,  S. C. McKenzie,  J.-M. Mewes,  P. Morgante,  A. F. Morrison,  
 J. W. Mullinax,  K. Nanda,  T. S. Nguyen-Beck,  R. Olivares-Amaya,  
 J. A. Parkhill,  S. K. Paul,  Zheng Pei,  T. M. Perrine,  F. Plasser,  
 P. Pokhilko,  S. Prager,  A. Prociuk,  E. Ramos,  B. Rana,  D. R. Rehn,  
 F. Rob,  M. Scheurer,  M. Schneider,  N. Sergueev,  S. M. Sharada,  
 S. Sharma,  D. W. Small,  T. Stauch,  C. J. Stein,  T. Stein,  Yu-Chuan Su,  
 S. P. Veccham,  A. J. W. Thom,  A. Tkatchenko,  T. Tsuchimochi,  
 N. M. Tubman,  L. Vogt,  M. L. Vidal,  O. Vydrov,  M. A. Watson,  J. Wenzel,  
 M. de Wergifosse,  T. A. Wesolowski,  A. White,  J. Witte,  A. Yamada,  
 Jun Yang,  K. Yao,  S. Yeganeh,  S. R. Yost,  Zhi-Qiang You,  A. Zech,  
 Igor Ying Zhang,  Xing Zhang,  Yan Zhao,  Ying Zhu,  B. R. Brooks,  
 G. K. L. Chan,  C. J. Cramer,  M. S. Gordon,  W. J. Hehre,  A. Klamt,  
 M. W. Schmidt,  C. D. Sherrill,  D. G. Truhlar,  A. Aspuru-Guzik,  R. Baer,  
 A. T. Bell,  N. A. Besley,  Jeng-Da Chai,  A. E. DePrince, III,  
 R. A. DiStasio Jr.,  A. Dreuw,  B. D. Dunietz,  T. R. Furlani,  
 Chao-Ping Hsu,  Yousung Jung,  Jing Kong,  D. S. Lambrecht,  WanZhen Liang,  
 C. Ochsenfeld,  V. A. Rassolov,  L. V. Slipchenko,  J. E. Subotnik,  
 T. Van Voorhis,  J. M. Herbert,  A. I. Krylov,  P. M. W. Gill,  M. Head-Gordon

 Contributors to earlier versions of Q-Chem not listed above: 
 R. D. Adamson,  B. Austin,  J. Baker,  G. J. O. Beran,  K. Brandhorst,  
 S. T. Brown,  E. F. C. Byrd,  A. K. Chakraborty,  C.-L. Cheng,  
 Siu Hung Chien,  D. M. Chipman,  D. L. Crittenden,  H. Dachsel,  
 R. J. Doerksen,  A. D. Dutoi,  L. Fusti-Molnar,  W. A. Goddard III,  
 A. Golubeva-Zadorozhnaya,  S. R. Gwaltney,  G. Hawkins,  A. Heyden,  
 S. Hirata,  G. Kedziora,  F. J. Keil,  C. Kelley,  Jihan Kim,  R. A. King,  
 R. Z. Khaliullin,  P. P. Korambath,  W. Kurlancheek,  A. M. Lee,  M. S. Lee,  
 S. V. Levchenko,  Ching Yeh Lin,  D. Liotard,  R. C. Lochan,  I. Lotan,  
 P. E. Maslen,  N. Nair,  D. P. O'Neill,  D. Neuhauser,  E. Neuscamman,  
 C. M. Oana,  R. Olson,  B. Peters,  R. Peverati,  P. A. Pieniazek,  
 Y. M. Rhee,  J. Ritchie,  M. A. Rohrdanz,  E. Rosta,  N. J. Russ,  
 H. F. Schaefer III,  N. E. Schultz,  N. Shenvi,  A. C. Simmonett,  A. Sodt,  
 D. Stuck,  K. S. Thanthiriwatte,  V. Vanovschi,  Tao Wang,  A. Warshel,  
 C. F. Williams,  Q. Wu,  X. Xu,  W. Zhang

 Please cite Q-Chem as follows:
 Y. Shao et al., Mol. Phys. 113, 184-215 (2015)
 DOI: 10.1080/00268976.2014.952696

 Q-Chem 5.2.2 for Intel X86 EM64T Linux

 Parts of Q-Chem use Armadillo 9.800.1 (Horizon Scraper).
 http://arma.sourceforge.net/

 Q-Chem begins on Sun Apr 12 05:29:17 2020  

Host: cn0821
0

     Scratch files written to /tmp/ypli/6721342.srvc1/qchem169300//
Warning:  Did not find "$end" marker in "$molecule" section

Checking the input file for inconsistencies... 	...done.

--------------------------------------------------------------
User input:
--------------------------------------------------------------
$rem
   JOBTYPE  sp
   EXCHANGE   omegaB97X-D
   BASIS   6-311+G(2df,2pd)
   max_scf_cycles   250
   geom_opt_max_cycles   1500
   basis2 6-31G*
   scf_algorithm rca_diis
   SYM_IGNORE  TRUE
   print_input   true
   geom_opt_dmax   80
   pop_mulliken false
   XC_GRID 000075000302
$end

$molecule
0 1
C       1.0666493661     0.0002067348     0.2612507216
C       0.0000000582     -0.0029696919     -0.8002315529
H       0.8869534616     -0.8725686001     0.8939047940
H       0.8827989515     0.8741480673     0.8907065604
H       2.1139506610     -0.0012894300     -0.0340353848
C       -1.0666490399     0.0002068998     0.2612509602
H       -0.0000004666     -0.8814453904     -1.4463497807
H       0.0000001457     0.8834216591     -1.4360273372
H       -0.8869534900     -0.8725688452     0.8939045347
H       -2.1139503528     -0.0012889407     -0.0340356260
H       -0.8827993554     0.8741482033     0.8907071296
--------------------------------------------------------------
 ----------------------------------------------------------------
             Standard Nuclear Orientation (Angstroms)
    I     Atom           X                Y                Z
 ----------------------------------------------------------------
    1      C       1.0666493661     0.0002067348     0.2612507216
    2      C       0.0000000582    -0.0029696919    -0.8002315529
    3      H       0.8869534616    -0.8725686001     0.8939047940
    4      H       0.8827989515     0.8741480673     0.8907065604
    5      H       2.1139506610    -0.0012894300    -0.0340353848
    6      C      -1.0666490399     0.0002068998     0.2612509602
    7      H      -0.0000004666    -0.8814453904    -1.4463497807
    8      H       0.0000001457     0.8834216591    -1.4360273372
    9      H      -0.8869534900    -0.8725688452     0.8939045347
   10      H      -2.1139503528    -0.0012889407    -0.0340356260
   11      H      -0.8827993554     0.8741482033     0.8907071296
 ----------------------------------------------------------------
 Nuclear Repulsion Energy =          86.10032138 hartrees
 There are       13 alpha and       13 beta electrons
 Requested basis set is 6-311+G(2df,2pd)
 There are 72 shells and 214 basis functions

 Total QAlloc Memory Limit   2000 MB
 Mega-Array Size       188 MB
 MEM_STATIC part       192 MB

                       Distance Matrix (Angstroms)
             C (  1)   C (  2)   H (  3)   H (  4)   H (  5)   C (  6)
   C (  2)  1.504824
   H (  3)  1.092831  2.100711
   H (  4)  1.092607  2.099510  1.746725
   H (  5)  1.088134  2.248521  1.767971  1.771235
   C (  6)  2.133298  1.504824  2.231267  2.227181  3.194278
   H (  7)  2.197943  1.090499  2.502710  3.053404  2.690371  2.197942
   H (  8)  2.190562  1.090837  3.049389  2.488596  2.686463  2.190562
   H (  9)  2.231267  2.100711  1.773907  2.486575  3.259697  1.092831
   H ( 10)  3.194278  2.248521  3.259697  3.256078  4.227901  1.088134
   H ( 11)  2.227182  2.099510  2.486575  1.765598  3.256079  1.092607
             H (  7)   H (  8)   H (  9)   H ( 10)
   H (  8)  1.764897
   H (  9)  2.502709  3.049389
   H ( 10)  2.690370  2.686462  1.767971
   H ( 11)  3.053404  2.488597  1.746725  1.771235
 
 A cutoff of  1.0D-09 yielded   2569 shell pairs
 There are     22913 function pairs (     28200 Cartesian)
 Smallest overlap matrix eigenvalue = 7.01E-05

 Scale SEOQF with 1.000000e-01/1.000000e-01/1.000000e-01

 Standard Electronic Orientation quadrupole field applied
 Requested basis set is 6-31G(d)
 There are 28 shells and 58 basis functions
 A cutoff of  1.0D-09 yielded    402 shell pairs
 There are      1773 function pairs (      1968 Cartesian)
 Smallest overlap matrix eigenvalue = 6.77E-03
 Guess from superposition of atomic densities
 Warning:  Energy on first SCF cycle will be non-variational
 SAD guess density has 26.000000 electrons
 Long-range K will be added via erf
 Coulomb attenuation parameter = 0.2 bohr**(-1)
 A restricted hybrid HF-DFT SCF calculation will be
 performed using Relaxed Constraint Minimization + Pulay DIIS
 Exchange:     0.2220 Hartree-Fock + 1.0000 wB97X-D + LR-HF
 Correlation:  1.0000 wB97X-D
 Using Euler-Maclaurin-Lebedev (75,302) quadrature formula
 Dispersion:   Grimme D
 SCF converges when DIIS error is below 1.0E-04
 using 3 threads for integral computing
 -------------------------------------------------------
 OpenMP Integral computing Module                
 Release: version 1.0, May 2013, Q-Chem Inc. Pittsburgh 
 -------------------------------------------------------
 using 3 threads for integral computing
 -------------------------------------------------------
 OpenMP Integral computing Module                
 Release: version 1.0, May 2013, Q-Chem Inc. Pittsburgh 
 -------------------------------------------------------
 ---------------------------------------
  Cycle       Energy         DIIS Error
 ---------------------------------------
    1    -119.8128308319      1.05E-01
    2    -119.0274445047      9.35E-03
    3    -119.0492154474      2.40E-03
    4    -119.0649017409      1.65E-03
    5    -119.0655360596      2.16E-04 Done RCA. Switching to DIIS
    6    -119.0660390688      1.60E-04
    7    -119.0660499946      4.37E-06 Convergence criterion met
 ---------------------------------------
 SCF time:  CPU 31.65 s  wall 10.93 s
 SCF   energy in the small basis set = -119.06604999
 Total energy in the small basis set = -119.06604999
 ----------------------------------------------------
  Cycle       Energy    
 ----------------------------------------------------
    1     -16.5857776827     -1.66E+01
 Long-range K will be added via erf
 Coulomb attenuation parameter = 0.2 bohr**(-1)
 A restricted hybrid HF-DFT SCF calculation will be
 performed using Relaxed Constraint Minimization + Pulay DIIS
 Exchange:     0.2220 Hartree-Fock + 1.0000 wB97X-D + LR-HF
 Correlation:  1.0000 wB97X-D
 Using Euler-Maclaurin-Lebedev (75,302) quadrature formula
 Dispersion:   Grimme D
 SCF converges when DIIS error is below 1.0E-05
 Basis2 calculation detected. Using small basis as guess for larger.
 SCFMinFind is unable to tell whether the solution found is close.
 Resetting ReadMinima to 0 and attempting to follow guess.
 SCFMinFind following SCF Guess.
 using 3 threads for integral computing
 -------------------------------------------------------
 OpenMP Integral computing Module                
 Release: version 1.0, May 2013, Q-Chem Inc. Pittsburgh 
 -------------------------------------------------------
 using 3 threads for integral computing
 -------------------------------------------------------
 OpenMP Integral computing Module                
 Release: version 1.0, May 2013, Q-Chem Inc. Pittsburgh 
 -------------------------------------------------------
 ---------------------------------------
  Cycle       Energy         DIIS Error
 ---------------------------------------
    1    -119.0871100429      4.21E-03
    2    -119.1088555093      6.13E-04 Done RCA. Switching to DIIS
    3    -119.1095980259      4.58E-04
    4    -119.1107327131      4.67E-05
    5    -119.1107481691      6.76E-06 Convergence criterion met
 ---------------------------------------
 SCF time:  CPU 88.38 s  wall 29.92 s
 SCF   energy in the final basis set = -119.11074817
 Total energy in the final basis set = -119.11074817
 
 --------------------------------------------------------------
 
                    Orbital Energies (a.u.)
 --------------------------------------------------------------
 
 Alpha MOs
 -- Occupied --
-10.2735 -10.2623 -10.2623  -0.9105  -0.7527  -0.6932  -0.5663  -0.5435
 -0.4534  -0.4485  -0.4351  -0.4252  -0.3930
 -- Virtual --
  0.0727   0.0832   0.0856   0.0981   0.1243   0.1347   0.1350   0.1356
  0.1358   0.1682   0.1734   0.1987   0.2050   0.2531   0.2644   0.2797
  0.2853   0.2893   0.3179   0.3272   0.3379   0.3625   0.4582   0.4647
  0.4815   0.4937   0.4976   0.5157   0.5272   0.5584   0.6076   0.6273
  0.6312   0.6324   0.6350   0.6573   0.6722   0.6761   0.6969   0.7305
  0.7400   0.7955   0.8174   0.8584   0.8999   0.9192   0.9211   0.9293
  1.0041   1.0445   1.0851   1.1387   1.1717   1.2103   1.2229   1.2458
  1.2579   1.2682   1.2714   1.2922   1.3033   1.3081   1.3647   1.4036
  1.4042   1.4219   1.4224   1.4400   1.4458   1.4652   1.5039   1.5275
  1.5303   1.5593   1.5919   1.6057   1.6518   1.6980   1.7270   1.7836
  1.8189   2.4071   2.4160   2.4888   2.5293   2.5337   2.6075   2.6749
  2.7061   2.7481   2.7783   2.8149   2.8716   2.8766   2.9099   2.9212
  2.9403   2.9946   2.9969   3.0256   3.0409   3.0612   3.0994   3.1137
  3.1377   3.1581   3.1866   3.2196   3.2672   3.2721   3.3060   3.3064
  3.3261   3.3538   3.3550   3.3880   3.4037   3.4166   3.4185   3.5098
  3.5118   3.5367   3.5369   3.5417   3.5870   3.5922   3.6182   3.6333
  3.6594   3.7007   3.7041   3.7614   3.8030   3.8278   3.8578   3.8822
  3.9543   3.9636   3.9675   3.9826   4.0421   4.0641   4.0877   4.0971
  4.1055   4.1655   4.1717   4.1968   4.2051   4.2341   4.2361   4.2834
  4.3042   4.3646   4.3658   4.4230   4.4385   4.4702   4.4730   4.4840
  4.5298   4.5976   4.6083   4.7288   4.7368   4.8046   4.8483   4.9037
  4.9388   4.9450   4.9789   5.0275   5.0704   5.0890   5.1112   5.1952
  5.2086   5.2730   5.3137   5.3439   5.3475   5.3730   5.3777   5.4258
  5.4277   5.4391   5.4914   5.5237   5.6114   5.7309   5.7607   5.7795
  6.0006   6.4149   6.4193   6.4303   6.4696   6.6206  25.1772  25.4220
 25.5656
 --------------------------------------------------------------
 
 -----------------------------------------------------------------
                    Cartesian Multipole Moments
 -----------------------------------------------------------------
    Charge (ESU x 10^10)
                -0.0000
    Dipole Moment (Debye)
         X      -0.0000      Y      -0.0002      Z      -0.0044
       Tot       0.0044
    Quadrupole Moments (Debye-Ang)
        XX     -23.0116     XY      -0.0000     YY     -21.1656
        XZ      -0.0000     YZ       0.0144     ZZ     -21.6156
    Octopole Moments (Debye-Ang^2)
       XXX       0.0000    XXY      -0.0145    XYY      -0.0000
       YYY       0.0467    XXZ       0.0358    XYZ      -0.0000
       YYZ       1.0641    XZZ      -0.0000    YZZ      -0.0143
       ZZZ       1.6876
    Hexadecapole Moments (Debye-Ang^3)
      XXXX    -152.7512   XXXY      -0.0000   XXYY     -35.1617
      XYYY       0.0000   YYYY     -43.1552   XXXZ       0.0000
      XXYZ      -0.0158   XYYZ      -0.0000   YYYZ      -0.0278
      XXZZ     -41.3059   XYZZ       0.0000   YYZZ     -18.4824
      XZZZ       0.0000   YZZZ       0.0338   ZZZZ     -82.5233
 -----------------------------------------------------------------
Archival summary:
1\1\cn0821\SP\ProcedureUnspecified\BasisUnspecified\38\r0852400\SunApr1205:30:022020SunApr1205:30:022020\0\\#,ProcedureUnspecified,BasisUnspecified,\\0,1\C\H,1,1.0905\H,1,1.09084,2,108.014\C,1,1.50482,2,114.812,3,-128.657,0\H,4,1.08813,1,119.393,2,62.2809,0\H,4,1.09261,1,106.786,2,-174.159,0\H,4,1.09283,1,106.865,2,-60.9268,0\C,1,1.50482,2,114.812,3,128.656,0\H,8,1.08813,1,119.393,2,-62.2809,0\H,8,1.09261,1,106.786,2,174.159,0\H,8,1.09283,1,106.865,2,60.9268,0\\\@

 Total job time:  45.28s(wall), 125.37s(cpu) 
 Sun Apr 12 05:30:02 2020

        *************************************************************
        *                                                           *
        *  Thank you very much for using Q-Chem.  Have a nice day.  *
        *                                                           *
        *************************************************************


