                  Welcome to Q-Chem
     A Quantum Leap Into The Future Of Chemistry


 Q-Chem 5.2 (devel), Q-Chem, Inc., Pleasanton, CA (2019)

 Yihan Shao,  Zhengting Gan,  E. Epifanovsky,  A. T. B. Gilbert,  M. Wormit,  
 J. Kussmann,  A. W. Lange,  A. Behn,  Jia Deng,  Xintian Feng,  D. Ghosh,  
 M. Goldey,  P. R. Horn,  L. D. Jacobson,  I. Kaliman,  T. Kus,  A. Landau,  
 Jie Liu,  E. I. Proynov,  R. M. Richard,  R. P. Steele,  E. J. Sundstrom,  
 H. L. Woodcock III,  P. M. Zimmerman,  D. Zuev,  B. Alam,  B. Albrecht,  
 E. Alguire,  S. A. Baeppler,  D. Barton,  Z. Benda,  Y. A. Bernard,  
 E. J. Berquist,  K. B. Bravaya,  H. Burton,  K. Carter-Fenk,  D. Casanova,  
 Chun-Min Chang,  Yunqing Chen,  A. Chien,  K. D. Closser,  M. P. Coons,  
 S. Coriani,  S. Dasgupta,  A. L. Dempwolff,  M. Diedenhofen,  Hainam Do,  
 R. G. Edgar,  Po-Tung Fang,  S. Faraji,  S. Fatehi,  Qingguo Feng,  
 J. Fosso-Tande,  J. Gayvert,  Qinghui Ge,  A. Ghysels,  G. Gidofalvi,  
 J. Gomes,  J. Gonthier,  A. Gunina,  D. Hait,  M. W. D. Hanson-Heine,  
 P. H. P. Harbach,  A. W. Hauser,  M. F. Herbst,  J. E. Herr,  
 E. G. Hohenstein,  Z. C. Holden,  Kerwin Hui,  B. C. Huynh,  T.-C. Jagau,  
 Hyunjun Ji,  B. Kaduk,  K. Khistyaev,  Jaehoon Kim,  P. Klunzinger,  K. Koh,  
 D. Kosenkov,  L. Koulias,  T. Kowalczyk,  C. M. Krauter,  A. Kunitsa,  
 Ka Un Lao,  A. Laurent,  K. V. Lawler,  Joonho Lee,  D. Lefrancois,  
 S. Lehtola,  D. S. Levine,  Yi-Pei Li,  You-Sheng Lin,  Fenglai Liu,  
 Kuan-Yu Liu,  E. Livshits,  M. Loipersberger,  A. Luenser,  P. Manohar,  
 E. Mansoor,  S. F. Manzer,  Shan-Ping Mao,  Yuezhi Mao,  N. Mardirossian,  
 A. V. Marenich,  T. Markovich,  L. A. Martinez-Martinez,  S. A. Maurer,  
 N. J. Mayhall,  S. C. McKenzie,  J.-M. Mewes,  P. Morgante,  A. F. Morrison,  
 J. W. Mullinax,  K. Nanda,  T. S. Nguyen-Beck,  R. Olivares-Amaya,  
 J. A. Parkhill,  S. K. Paul,  Zheng Pei,  T. M. Perrine,  F. Plasser,  
 P. Pokhilko,  S. Prager,  A. Prociuk,  E. Ramos,  B. Rana,  D. R. Rehn,  
 F. Rob,  M. Scheurer,  M. Schneider,  N. Sergueev,  S. M. Sharada,  
 S. Sharma,  D. W. Small,  T. Stauch,  C. J. Stein,  T. Stein,  Yu-Chuan Su,  
 S. P. Veccham,  A. J. W. Thom,  A. Tkatchenko,  T. Tsuchimochi,  
 N. M. Tubman,  L. Vogt,  M. L. Vidal,  O. Vydrov,  M. A. Watson,  J. Wenzel,  
 M. de Wergifosse,  T. A. Wesolowski,  A. White,  J. Witte,  A. Yamada,  
 Jun Yang,  K. Yao,  S. Yeganeh,  S. R. Yost,  Zhi-Qiang You,  A. Zech,  
 Igor Ying Zhang,  Xing Zhang,  Yan Zhao,  Ying Zhu,  B. R. Brooks,  
 G. K. L. Chan,  C. J. Cramer,  M. S. Gordon,  W. J. Hehre,  A. Klamt,  
 M. W. Schmidt,  C. D. Sherrill,  D. G. Truhlar,  A. Aspuru-Guzik,  R. Baer,  
 A. T. Bell,  N. A. Besley,  Jeng-Da Chai,  A. E. DePrince, III,  
 R. A. DiStasio Jr.,  A. Dreuw,  B. D. Dunietz,  T. R. Furlani,  
 Chao-Ping Hsu,  Yousung Jung,  Jing Kong,  D. S. Lambrecht,  WanZhen Liang,  
 C. Ochsenfeld,  V. A. Rassolov,  L. V. Slipchenko,  J. E. Subotnik,  
 T. Van Voorhis,  J. M. Herbert,  A. I. Krylov,  P. M. W. Gill,  M. Head-Gordon

 Contributors to earlier versions of Q-Chem not listed above: 
 R. D. Adamson,  B. Austin,  J. Baker,  G. J. O. Beran,  K. Brandhorst,  
 S. T. Brown,  E. F. C. Byrd,  A. K. Chakraborty,  C.-L. Cheng,  
 Siu Hung Chien,  D. M. Chipman,  D. L. Crittenden,  H. Dachsel,  
 R. J. Doerksen,  A. D. Dutoi,  L. Fusti-Molnar,  W. A. Goddard III,  
 A. Golubeva-Zadorozhnaya,  S. R. Gwaltney,  G. Hawkins,  A. Heyden,  
 S. Hirata,  G. Kedziora,  F. J. Keil,  C. Kelley,  Jihan Kim,  R. A. King,  
 R. Z. Khaliullin,  P. P. Korambath,  W. Kurlancheek,  A. M. Lee,  M. S. Lee,  
 S. V. Levchenko,  Ching Yeh Lin,  D. Liotard,  R. C. Lochan,  I. Lotan,  
 P. E. Maslen,  N. Nair,  D. P. O'Neill,  D. Neuhauser,  E. Neuscamman,  
 C. M. Oana,  R. Olson,  B. Peters,  R. Peverati,  P. A. Pieniazek,  
 Y. M. Rhee,  J. Ritchie,  M. A. Rohrdanz,  E. Rosta,  N. J. Russ,  
 H. F. Schaefer III,  N. E. Schultz,  N. Shenvi,  A. C. Simmonett,  A. Sodt,  
 D. Stuck,  K. S. Thanthiriwatte,  V. Vanovschi,  Tao Wang,  A. Warshel,  
 C. F. Williams,  Q. Wu,  X. Xu,  W. Zhang

 Please cite Q-Chem as follows:
 Y. Shao et al., Mol. Phys. 113, 184-215 (2015)
 DOI: 10.1080/00268976.2014.952696

 Q-Chem 5.2.2 for Intel X86 EM64T Linux

 Parts of Q-Chem use Armadillo 9.800.1 (Horizon Scraper).
 http://arma.sourceforge.net/

 Q-Chem begins on Sun Apr 12 07:23:58 2020  

Host: cn0821
0

     Scratch files written to /tmp/ypli/6721342.srvc1/qchem186786//
Warning:  Did not find "$end" marker in "$molecule" section

Checking the input file for inconsistencies... 	...done.

--------------------------------------------------------------
User input:
--------------------------------------------------------------
$rem
   JOBTYPE  sp
   EXCHANGE   omegaB97X-D
   BASIS   6-311+G(2df,2pd)
   max_scf_cycles   250
   geom_opt_max_cycles   1500
   basis2 6-31G*
   scf_algorithm rca_diis
   SYM_IGNORE  TRUE
   print_input   true
   geom_opt_dmax   80
   pop_mulliken false
   XC_GRID 000075000302
$end

$molecule
0 1
C       1.2653511662     -0.0059281539     0.2540579394
C       0.0000000852     -0.0067526277     -0.6044733415
H       1.2907078516     -0.8983877728     0.8808972287
H       1.3265230171     0.8926252818     0.8714560848
H       2.1720809538     0.0201486683     -0.3532829289
C       -1.2653509873     -0.0059287431     0.2540580624
H       0.0000004143     -0.9305683360     -1.1833616156
H       -0.0000005333     0.9204024580     -1.1773761853
H       -1.2907049593     -0.8983882529     0.8808973606
H       -2.1720810840     0.0201525030     -0.3532822442
H       -1.3265259850     0.8926256410     0.8714546586
--------------------------------------------------------------
 ----------------------------------------------------------------
             Standard Nuclear Orientation (Angstroms)
    I     Atom           X                Y                Z
 ----------------------------------------------------------------
    1      C       1.2653511662    -0.0059281539     0.2540579394
    2      C       0.0000000852    -0.0067526277    -0.6044733415
    3      H       1.2907078516    -0.8983877728     0.8808972287
    4      H       1.3265230171     0.8926252818     0.8714560848
    5      H       2.1720809538     0.0201486683    -0.3532829289
    6      C      -1.2653509873    -0.0059287431     0.2540580624
    7      H       0.0000004143    -0.9305683360    -1.1833616156
    8      H      -0.0000005333     0.9204024580    -1.1773761853
    9      H      -1.2907049593    -0.8983882529     0.8808973606
   10      H      -2.1720810840     0.0201525030    -0.3532822442
   11      H      -1.3265259850     0.8926256410     0.8714546586
 ----------------------------------------------------------------
 Nuclear Repulsion Energy =          82.73119177 hartrees
 There are       13 alpha and       13 beta electrons
 Requested basis set is 6-311+G(2df,2pd)
 There are 72 shells and 214 basis functions

 Total QAlloc Memory Limit   2000 MB
 Mega-Array Size       188 MB
 MEM_STATIC part       192 MB

                       Distance Matrix (Angstroms)
             C (  1)   C (  2)   H (  3)   H (  4)   H (  5)   C (  6)
   C (  2)  1.529114
   H (  3)  1.090896  2.160385
   H (  4)  1.091934  2.178741  1.791396
   H (  5)  1.091651  2.186723  1.773056  1.725158
   C (  6)  2.530702  1.529114  2.779001  2.811830  3.490771
   H (  7)  2.126558  1.090205  2.434774  3.050569  2.512136  2.126558
   H (  8)  2.123254  1.089878  3.034867  2.440932  2.491490  2.123253
   H (  9)  2.778999  2.160384  2.581413  3.171388  3.789168  1.090896
   H ( 10)  3.490771  2.186723  3.789172  3.808073  4.344162  1.091651
   H ( 11)  2.811833  2.178742  3.171393  2.653049  3.808077  1.091934
             H (  7)   H (  8)   H (  9)   H ( 10)
   H (  8)  1.850980
   H (  9)  2.434773  3.034865
   H ( 10)  2.512139  2.491488  1.773060
   H ( 11)  3.050570  2.440932  1.791397  1.725153
 
 A cutoff of  1.0D-09 yielded   2532 shell pairs
 There are     22578 function pairs (     27759 Cartesian)
 Smallest overlap matrix eigenvalue = 8.58E-05

 Scale SEOQF with 1.000000e-01/1.000000e-01/1.000000e-01

 Standard Electronic Orientation quadrupole field applied
 Nucleus-field energy     =     0.0000000006 hartrees
 Requested basis set is 6-31G(d)
 There are 28 shells and 58 basis functions
 A cutoff of  1.0D-09 yielded    402 shell pairs
 There are      1773 function pairs (      1968 Cartesian)
 Smallest overlap matrix eigenvalue = 6.68E-03
 Guess from superposition of atomic densities
 Warning:  Energy on first SCF cycle will be non-variational
 SAD guess density has 26.000000 electrons
 Long-range K will be added via erf
 Coulomb attenuation parameter = 0.2 bohr**(-1)
 A restricted hybrid HF-DFT SCF calculation will be
 performed using Relaxed Constraint Minimization + Pulay DIIS
 Exchange:     0.2220 Hartree-Fock + 1.0000 wB97X-D + LR-HF
 Correlation:  1.0000 wB97X-D
 Using Euler-Maclaurin-Lebedev (75,302) quadrature formula
 Dispersion:   Grimme D
 SCF converges when DIIS error is below 1.0E-04
 using 3 threads for integral computing
 -------------------------------------------------------
 OpenMP Integral computing Module                
 Release: version 1.0, May 2013, Q-Chem Inc. Pittsburgh 
 -------------------------------------------------------
 using 3 threads for integral computing
 -------------------------------------------------------
 OpenMP Integral computing Module                
 Release: version 1.0, May 2013, Q-Chem Inc. Pittsburgh 
 -------------------------------------------------------
 ---------------------------------------
  Cycle       Energy         DIIS Error
 ---------------------------------------
    1    -119.6133364187      1.00E-01
    2    -119.0630622516      9.05E-03
    3    -119.0844394428      2.49E-03
    4    -119.0983936449      1.70E-03
    5    -119.0991064356      2.78E-04 Done RCA. Switching to DIIS
    6    -119.0996219754      2.04E-04
    7    -119.0996400107      4.96E-06 Convergence criterion met
 ---------------------------------------
 SCF time:  CPU 32.75 s  wall 11.35 s
 SCF   energy in the small basis set = -119.09964001
 Total energy in the small basis set = -119.09964001
 ----------------------------------------------------
  Cycle       Energy    
 ----------------------------------------------------
    1     -16.5383605836     -1.65E+01
 Long-range K will be added via erf
 Coulomb attenuation parameter = 0.2 bohr**(-1)
 A restricted hybrid HF-DFT SCF calculation will be
 performed using Relaxed Constraint Minimization + Pulay DIIS
 Exchange:     0.2220 Hartree-Fock + 1.0000 wB97X-D + LR-HF
 Correlation:  1.0000 wB97X-D
 Using Euler-Maclaurin-Lebedev (75,302) quadrature formula
 Dispersion:   Grimme D
 SCF converges when DIIS error is below 1.0E-05
 Basis2 calculation detected. Using small basis as guess for larger.
 SCFMinFind is unable to tell whether the solution found is close.
 Resetting ReadMinima to 0 and attempting to follow guess.
 SCFMinFind following SCF Guess.
 using 3 threads for integral computing
 -------------------------------------------------------
 OpenMP Integral computing Module                
 Release: version 1.0, May 2013, Q-Chem Inc. Pittsburgh 
 -------------------------------------------------------
 using 3 threads for integral computing
 -------------------------------------------------------
 OpenMP Integral computing Module                
 Release: version 1.0, May 2013, Q-Chem Inc. Pittsburgh 
 -------------------------------------------------------
 ---------------------------------------
  Cycle       Energy         DIIS Error
 ---------------------------------------
    1    -119.1187471974      4.21E-03
    2    -119.1408091249      6.06E-04 Done RCA. Switching to DIIS
    3    -119.1416691000      4.25E-04
    4    -119.1426581515      4.45E-05
    5    -119.1426725167      9.56E-06 Convergence criterion met
 ---------------------------------------
 SCF time:  CPU 84.39 s  wall 28.56 s
 SCF   energy in the final basis set = -119.14267252
 Total energy in the final basis set = -119.14267252
 
 --------------------------------------------------------------
 
                    Orbital Energies (a.u.)
 --------------------------------------------------------------
 
 Alpha MOs
 -- Occupied --
-10.2751 -10.2644 -10.2644  -0.8816  -0.7765  -0.6743  -0.5570  -0.5191
 -0.4769  -0.4686  -0.4175  -0.4169  -0.4059
 -- Virtual --
  0.0698   0.0858   0.0924   0.0969   0.1261   0.1312   0.1327   0.1386
  0.1407   0.1719   0.1726   0.1902   0.2346   0.2413   0.2460   0.2716
  0.2810   0.2849   0.3004   0.3135   0.3340   0.3467   0.4584   0.4672
  0.4694   0.4980   0.5105   0.5181   0.5481   0.5605   0.5855   0.5937
  0.6255   0.6265   0.6385   0.6488   0.6527   0.6610   0.7094   0.7205
  0.7270   0.7690   0.8314   0.8608   0.8717   0.8747   0.8753   0.9605
  1.0034   1.0357   1.0499   1.1415   1.1444   1.1757   1.1843   1.2057
  1.2251   1.2340   1.2724   1.2779   1.2895   1.3018   1.3213   1.3733
  1.3803   1.3916   1.4030   1.4498   1.4605   1.4685   1.4767   1.4907
  1.5264   1.5810   1.6039   1.6250   1.6254   1.6419   1.6809   1.7028
  1.7298   2.3792   2.4629   2.4953   2.5008   2.5709   2.5789   2.5980
  2.6345   2.7045   2.8300   2.8382   2.8698   2.8773   2.9214   2.9273
  2.9351   2.9453   3.0177   3.0225   3.0424   3.0476   3.0703   3.1000
  3.1209   3.1393   3.1826   3.2043   3.2175   3.2221   3.2829   3.2889
  3.3095   3.3144   3.3412   3.3536   3.3734   3.3756   3.3994   3.4291
  3.4797   3.4879   3.5050   3.5306   3.5647   3.5796   3.6001   3.6153
  3.6232   3.6625   3.7087   3.7147   3.8054   3.8068   3.8708   3.8991
  3.9081   3.9431   3.9532   3.9623   3.9881   4.0065   4.0349   4.0531
  4.0677   4.0832   4.0982   4.1282   4.1426   4.1614   4.1654   4.1763
  4.2124   4.2359   4.2583   4.3755   4.3986   4.4149   4.4200   4.4205
  4.4269   4.6087   4.6098   4.6405   4.6903   4.7968   4.8175   4.9022
  4.9173   4.9627   4.9812   4.9840   4.9970   5.0410   5.0430   5.1064
  5.1240   5.2209   5.2262   5.2412   5.3261   5.3535   5.3613   5.3759
  5.3851   5.4572   5.4811   5.5143   5.5390   5.5655   5.6692   5.7412
  5.9892   6.3588   6.3655   6.4105   6.4264   6.4372  25.2090  25.4440
 25.4540
 --------------------------------------------------------------
 
 -----------------------------------------------------------------
                    Cartesian Multipole Moments
 -----------------------------------------------------------------
    Charge (ESU x 10^10)
                -0.0000
    Dipole Moment (Debye)
         X      -0.0000      Y       0.0309      Z      -0.0734
       Tot       0.0796
    Quadrupole Moments (Debye-Ang)
        XX     -22.2153     XY      -0.0000     YY     -20.9587
        XZ      -0.0000     YZ      -0.0508     ZZ     -22.3381
    Octopole Moments (Debye-Ang^2)
       XXX      -0.0000    XXY       0.6032    XYY      -0.0000
       YYY       0.2406    XXZ      -1.3413    XYZ       0.0000
       YYZ       0.4153    XZZ       0.0000    YZZ       0.0109
       ZZZ       0.3088
    Hexadecapole Moments (Debye-Ang^3)
      XXXX    -202.6719   XXXY      -0.0001   XXYY     -42.1642
      XYYY       0.0000   YYYY     -44.3097   XXXZ      -0.0000
      XXYZ       0.0115   XYYZ       0.0000   YYYZ      -0.0140
      XXZZ     -45.5454   XYZZ       0.0000   YYZZ     -16.9761
      XZZZ       0.0000   YZZZ      -0.0306   ZZZZ     -72.2323
 -----------------------------------------------------------------
Archival summary:
1\1\cn0821\SP\ProcedureUnspecified\BasisUnspecified\38\r0852400\SunApr1207:24:422020SunApr1207:24:422020\0\\#,ProcedureUnspecified,BasisUnspecified,\\0,1\C\H,1,1.08988\H,1,1.09021,2,116.215\C,1,1.52911,2,107.138,3,120.008,0\H,4,1.0909,1,109.963,2,177.605,0\H,4,1.09165,1,112.023,2,-61.4584,0\H,4,1.09193,1,111.362,2,55.0229,0\C,1,1.52911,2,107.138,3,-120.008,0\H,8,1.0909,1,109.963,2,-177.605,0\H,8,1.09165,1,112.023,2,61.4581,0\H,8,1.09193,1,111.362,2,-55.0227,0\\\@

 Total job time:  44.12s(wall), 122.28s(cpu) 
 Sun Apr 12 07:24:42 2020

        *************************************************************
        *                                                           *
        *  Thank you very much for using Q-Chem.  Have a nice day.  *
        *                                                           *
        *************************************************************


