                  Welcome to Q-Chem
     A Quantum Leap Into The Future Of Chemistry


 Q-Chem 5.2 (devel), Q-Chem, Inc., Pleasanton, CA (2019)

 Yihan Shao,  Zhengting Gan,  E. Epifanovsky,  A. T. B. Gilbert,  M. Wormit,  
 J. Kussmann,  A. W. Lange,  A. Behn,  Jia Deng,  Xintian Feng,  D. Ghosh,  
 M. Goldey,  P. R. Horn,  L. D. Jacobson,  I. Kaliman,  T. Kus,  A. Landau,  
 Jie Liu,  E. I. Proynov,  R. M. Richard,  R. P. Steele,  E. J. Sundstrom,  
 H. L. Woodcock III,  P. M. Zimmerman,  D. Zuev,  B. Alam,  B. Albrecht,  
 E. Alguire,  S. A. Baeppler,  D. Barton,  Z. Benda,  Y. A. Bernard,  
 E. J. Berquist,  K. B. Bravaya,  H. Burton,  K. Carter-Fenk,  D. Casanova,  
 Chun-Min Chang,  Yunqing Chen,  A. Chien,  K. D. Closser,  M. P. Coons,  
 S. Coriani,  S. Dasgupta,  A. L. Dempwolff,  M. Diedenhofen,  Hainam Do,  
 R. G. Edgar,  Po-Tung Fang,  S. Faraji,  S. Fatehi,  Qingguo Feng,  
 J. Fosso-Tande,  J. Gayvert,  Qinghui Ge,  A. Ghysels,  G. Gidofalvi,  
 J. Gomes,  J. Gonthier,  A. Gunina,  D. Hait,  M. W. D. Hanson-Heine,  
 P. H. P. Harbach,  A. W. Hauser,  M. F. Herbst,  J. E. Herr,  
 E. G. Hohenstein,  Z. C. Holden,  Kerwin Hui,  B. C. Huynh,  T.-C. Jagau,  
 Hyunjun Ji,  B. Kaduk,  K. Khistyaev,  Jaehoon Kim,  P. Klunzinger,  K. Koh,  
 D. Kosenkov,  L. Koulias,  T. Kowalczyk,  C. M. Krauter,  A. Kunitsa,  
 Ka Un Lao,  A. Laurent,  K. V. Lawler,  Joonho Lee,  D. Lefrancois,  
 S. Lehtola,  D. S. Levine,  Yi-Pei Li,  You-Sheng Lin,  Fenglai Liu,  
 Kuan-Yu Liu,  E. Livshits,  M. Loipersberger,  A. Luenser,  P. Manohar,  
 E. Mansoor,  S. F. Manzer,  Shan-Ping Mao,  Yuezhi Mao,  N. Mardirossian,  
 A. V. Marenich,  T. Markovich,  L. A. Martinez-Martinez,  S. A. Maurer,  
 N. J. Mayhall,  S. C. McKenzie,  J.-M. Mewes,  P. Morgante,  A. F. Morrison,  
 J. W. Mullinax,  K. Nanda,  T. S. Nguyen-Beck,  R. Olivares-Amaya,  
 J. A. Parkhill,  S. K. Paul,  Zheng Pei,  T. M. Perrine,  F. Plasser,  
 P. Pokhilko,  S. Prager,  A. Prociuk,  E. Ramos,  B. Rana,  D. R. Rehn,  
 F. Rob,  M. Scheurer,  M. Schneider,  N. Sergueev,  S. M. Sharada,  
 S. Sharma,  D. W. Small,  T. Stauch,  C. J. Stein,  T. Stein,  Yu-Chuan Su,  
 S. P. Veccham,  A. J. W. Thom,  A. Tkatchenko,  T. Tsuchimochi,  
 N. M. Tubman,  L. Vogt,  M. L. Vidal,  O. Vydrov,  M. A. Watson,  J. Wenzel,  
 M. de Wergifosse,  T. A. Wesolowski,  A. White,  J. Witte,  A. Yamada,  
 Jun Yang,  K. Yao,  S. Yeganeh,  S. R. Yost,  Zhi-Qiang You,  A. Zech,  
 Igor Ying Zhang,  Xing Zhang,  Yan Zhao,  Ying Zhu,  B. R. Brooks,  
 G. K. L. Chan,  C. J. Cramer,  M. S. Gordon,  W. J. Hehre,  A. Klamt,  
 M. W. Schmidt,  C. D. Sherrill,  D. G. Truhlar,  A. Aspuru-Guzik,  R. Baer,  
 A. T. Bell,  N. A. Besley,  Jeng-Da Chai,  A. E. DePrince, III,  
 R. A. DiStasio Jr.,  A. Dreuw,  B. D. Dunietz,  T. R. Furlani,  
 Chao-Ping Hsu,  Yousung Jung,  Jing Kong,  D. S. Lambrecht,  WanZhen Liang,  
 C. Ochsenfeld,  V. A. Rassolov,  L. V. Slipchenko,  J. E. Subotnik,  
 T. Van Voorhis,  J. M. Herbert,  A. I. Krylov,  P. M. W. Gill,  M. Head-Gordon

 Contributors to earlier versions of Q-Chem not listed above: 
 R. D. Adamson,  B. Austin,  J. Baker,  G. J. O. Beran,  K. Brandhorst,  
 S. T. Brown,  E. F. C. Byrd,  A. K. Chakraborty,  C.-L. Cheng,  
 Siu Hung Chien,  D. M. Chipman,  D. L. Crittenden,  H. Dachsel,  
 R. J. Doerksen,  A. D. Dutoi,  L. Fusti-Molnar,  W. A. Goddard III,  
 A. Golubeva-Zadorozhnaya,  S. R. Gwaltney,  G. Hawkins,  A. Heyden,  
 S. Hirata,  G. Kedziora,  F. J. Keil,  C. Kelley,  Jihan Kim,  R. A. King,  
 R. Z. Khaliullin,  P. P. Korambath,  W. Kurlancheek,  A. M. Lee,  M. S. Lee,  
 S. V. Levchenko,  Ching Yeh Lin,  D. Liotard,  R. C. Lochan,  I. Lotan,  
 P. E. Maslen,  N. Nair,  D. P. O'Neill,  D. Neuhauser,  E. Neuscamman,  
 C. M. Oana,  R. Olson,  B. Peters,  R. Peverati,  P. A. Pieniazek,  
 Y. M. Rhee,  J. Ritchie,  M. A. Rohrdanz,  E. Rosta,  N. J. Russ,  
 H. F. Schaefer III,  N. E. Schultz,  N. Shenvi,  A. C. Simmonett,  A. Sodt,  
 D. Stuck,  K. S. Thanthiriwatte,  V. Vanovschi,  Tao Wang,  A. Warshel,  
 C. F. Williams,  Q. Wu,  X. Xu,  W. Zhang

 Please cite Q-Chem as follows:
 Y. Shao et al., Mol. Phys. 113, 184-215 (2015)
 DOI: 10.1080/00268976.2014.952696

 Q-Chem 5.2.2 for Intel X86 EM64T Linux

 Parts of Q-Chem use Armadillo 9.800.1 (Horizon Scraper).
 http://arma.sourceforge.net/

 Q-Chem begins on Sun Apr 12 05:47:02 2020  

Host: cn0821
0

     Scratch files written to /tmp/ypli/6721342.srvc1/qchem171932//
Warning:  Did not find "$end" marker in "$molecule" section

Checking the input file for inconsistencies... 	...done.

--------------------------------------------------------------
User input:
--------------------------------------------------------------
$rem
   JOBTYPE  sp
   EXCHANGE   omegaB97X-D
   BASIS   6-311+G(2df,2pd)
   max_scf_cycles   250
   geom_opt_max_cycles   1500
   basis2 6-31G*
   scf_algorithm rca_diis
   SYM_IGNORE  TRUE
   print_input   true
   geom_opt_dmax   80
   pop_mulliken false
   XC_GRID 000075000302
$end

$molecule
0 1
C       1.2432541063     0.0954070003     0.2646139126
C       -0.0000000396     0.1700449652     -0.6090107951
H       1.0917126540     -0.8917791585     0.7123129168
H       1.4515345701     0.8170300702     1.0525318894
H       2.1327977738     -0.0336663516     -0.3537575152
C       -1.2432543615     0.0954071901     0.2646135829
H       -0.0000000885     -0.8947178006     -0.8718616846
H       0.0000001908     0.7506896248     -1.5294846117
H       -1.0917122845     -0.8917787844     0.7123128882
H       -2.1327982323     -0.0336660034     -0.3537575614
H       -1.4515343493     0.8170299138     1.0525319971
--------------------------------------------------------------
 ----------------------------------------------------------------
             Standard Nuclear Orientation (Angstroms)
    I     Atom           X                Y                Z
 ----------------------------------------------------------------
    1      C       1.2432541063     0.0954070003     0.2646139126
    2      C      -0.0000000396     0.1700449652    -0.6090107951
    3      H       1.0917126540    -0.8917791585     0.7123129168
    4      H       1.4515345701     0.8170300702     1.0525318894
    5      H       2.1327977738    -0.0336663516    -0.3537575152
    6      C      -1.2432543615     0.0954071901     0.2646135829
    7      H      -0.0000000885    -0.8947178006    -0.8718616846
    8      H       0.0000001908     0.7506896248    -1.5294846117
    9      H      -1.0917122845    -0.8917787844     0.7123128882
   10      H      -2.1327982323    -0.0336660034    -0.3537575614
   11      H      -1.4515343493     0.8170299138     1.0525319971
 ----------------------------------------------------------------
 Nuclear Repulsion Energy =          83.41590722 hartrees
 There are       13 alpha and       13 beta electrons
 Requested basis set is 6-311+G(2df,2pd)
 There are 72 shells and 214 basis functions

 Total QAlloc Memory Limit   2000 MB
 Mega-Array Size       188 MB
 MEM_STATIC part       192 MB

                       Distance Matrix (Angstroms)
             C (  1)   C (  2)   H (  3)   H (  4)   H (  5)   C (  6)
   C (  2)  1.521339
   H (  3)  1.094502  2.016235
   H (  4)  1.088547  2.299188  1.779115
   H (  5)  1.091023  2.157656  1.719512  1.779172
   C (  6)  2.486508  1.521339  2.574304  2.898869  3.434643
   H (  7)  1.953869  1.096727  1.923916  2.956404  2.357683  1.953869
   H (  8)  2.279005  1.088311  2.985833  2.962796  2.558588  2.279005
   H (  9)  2.574303  2.016235  2.183425  3.082837  3.502903  1.094503
   H ( 10)  3.434643  2.157656  3.502904  3.943194  4.265596  1.091023
   H ( 11)  2.898869  2.299188  3.082837  2.903069  3.943193  1.088547
             H (  7)   H (  8)   H (  9)   H ( 10)
   H (  8)  1.771958
   H (  9)  1.923916  2.985832
   H ( 10)  2.357683  2.558589  1.719513
   H ( 11)  2.956404  2.962797  1.779114  1.779172
 
 A cutoff of  1.0D-09 yielded   2545 shell pairs
 There are     22599 function pairs (     27786 Cartesian)
 Smallest overlap matrix eigenvalue = 9.79E-05

 Scale SEOQF with 1.000000e-01/1.000000e-01/1.000000e-01

 Standard Electronic Orientation quadrupole field applied
 Nucleus-field energy     =     0.0000000005 hartrees
 Requested basis set is 6-31G(d)
 There are 28 shells and 58 basis functions
 A cutoff of  1.0D-09 yielded    402 shell pairs
 There are      1773 function pairs (      1968 Cartesian)
 Smallest overlap matrix eigenvalue = 5.86E-03
 Guess from superposition of atomic densities
 Warning:  Energy on first SCF cycle will be non-variational
 SAD guess density has 26.000000 electrons
 Long-range K will be added via erf
 Coulomb attenuation parameter = 0.2 bohr**(-1)
 A restricted hybrid HF-DFT SCF calculation will be
 performed using Relaxed Constraint Minimization + Pulay DIIS
 Exchange:     0.2220 Hartree-Fock + 1.0000 wB97X-D + LR-HF
 Correlation:  1.0000 wB97X-D
 Using Euler-Maclaurin-Lebedev (75,302) quadrature formula
 Dispersion:   Grimme D
 SCF converges when DIIS error is below 1.0E-04
 using 3 threads for integral computing
 -------------------------------------------------------
 OpenMP Integral computing Module                
 Release: version 1.0, May 2013, Q-Chem Inc. Pittsburgh 
 -------------------------------------------------------
 using 3 threads for integral computing
 -------------------------------------------------------
 OpenMP Integral computing Module                
 Release: version 1.0, May 2013, Q-Chem Inc. Pittsburgh 
 -------------------------------------------------------
 ---------------------------------------
  Cycle       Energy         DIIS Error
 ---------------------------------------
    1    -119.6848639285      1.02E-01
    2    -119.0340189675      9.06E-03
    3    -119.0553657812      2.51E-03
    4    -119.0695850429      1.73E-03
    5    -119.0703133275      2.67E-04 Done RCA. Switching to DIIS
    6    -119.0708552702      1.97E-04
    7    -119.0708721472      5.14E-06 Convergence criterion met
 ---------------------------------------
 SCF time:  CPU 33.46 s  wall 11.60 s
 SCF   energy in the small basis set = -119.07087215
 Total energy in the small basis set = -119.07087215
 ----------------------------------------------------
  Cycle       Energy    
 ----------------------------------------------------
    1     -16.5495042085     -1.65E+01
 Long-range K will be added via erf
 Coulomb attenuation parameter = 0.2 bohr**(-1)
 A restricted hybrid HF-DFT SCF calculation will be
 performed using Relaxed Constraint Minimization + Pulay DIIS
 Exchange:     0.2220 Hartree-Fock + 1.0000 wB97X-D + LR-HF
 Correlation:  1.0000 wB97X-D
 Using Euler-Maclaurin-Lebedev (75,302) quadrature formula
 Dispersion:   Grimme D
 SCF converges when DIIS error is below 1.0E-05
 Basis2 calculation detected. Using small basis as guess for larger.
 SCFMinFind is unable to tell whether the solution found is close.
 Resetting ReadMinima to 0 and attempting to follow guess.
 SCFMinFind following SCF Guess.
 using 3 threads for integral computing
 -------------------------------------------------------
 OpenMP Integral computing Module                
 Release: version 1.0, May 2013, Q-Chem Inc. Pittsburgh 
 -------------------------------------------------------
 using 3 threads for integral computing
 -------------------------------------------------------
 OpenMP Integral computing Module                
 Release: version 1.0, May 2013, Q-Chem Inc. Pittsburgh 
 -------------------------------------------------------
 ---------------------------------------
  Cycle       Energy         DIIS Error
 ---------------------------------------
    1    -119.0912855230      4.21E-03
    2    -119.1132304159      6.04E-04 Done RCA. Switching to DIIS
    3    -119.1140658267      4.27E-04
    4    -119.1150616072      4.66E-05
    5    -119.1150769636      1.04E-05
    6    -119.1150777091      3.64E-06 Convergence criterion met
 ---------------------------------------
 SCF time:  CPU 98.37 s  wall 33.28 s
 SCF   energy in the final basis set = -119.11507771
 Total energy in the final basis set = -119.11507771
 
 --------------------------------------------------------------
 
                    Orbital Energies (a.u.)
 --------------------------------------------------------------
 
 Alpha MOs
 -- Occupied --
-10.2762 -10.2665 -10.2665  -0.8928  -0.7777  -0.6754  -0.5599  -0.5213
 -0.4926  -0.4523  -0.4261  -0.4124  -0.3930
 -- Virtual --
  0.0684   0.0859   0.0882   0.0942   0.1264   0.1292   0.1318   0.1338
  0.1416   0.1720   0.1737   0.1921   0.2259   0.2436   0.2457   0.2652
  0.2786   0.2887   0.3107   0.3143   0.3333   0.3478   0.4608   0.4663
  0.4773   0.4852   0.5127   0.5144   0.5403   0.5622   0.5824   0.5918
  0.6158   0.6250   0.6314   0.6496   0.6511   0.6847   0.7060   0.7253
  0.7272   0.7840   0.8205   0.8385   0.8685   0.8935   0.9341   0.9911
  1.0215   1.0314   1.0858   1.1081   1.1253   1.1537   1.1980   1.2126
  1.2333   1.2427   1.2861   1.2968   1.3250   1.3365   1.3377   1.3709
  1.3813   1.4164   1.4282   1.4364   1.4383   1.4769   1.5038   1.5244
  1.5427   1.5696   1.5719   1.6055   1.6366   1.6418   1.6566   1.7071
  1.7102   2.3906   2.4233   2.4395   2.5509   2.5531   2.6050   2.6324
  2.6700   2.7055   2.7827   2.8522   2.8778   2.8830   2.9027   2.9057
  2.9809   3.0006   3.0007   3.0168   3.0435   3.0599   3.0677   3.1189
  3.1427   3.1615   3.1839   3.1855   3.2161   3.2587   3.2783   3.2896
  3.2956   3.3225   3.3634   3.3704   3.3978   3.4144   3.4438   3.4529
  3.4530   3.5145   3.5160   3.5337   3.5708   3.5778   3.5827   3.5952
  3.6136   3.6288   3.6452   3.7316   3.7394   3.8136   3.8497   3.8674
  3.8972   3.9202   3.9430   3.9850   3.9882   4.0299   4.0365   4.0936
  4.1134   4.1163   4.1281   4.1581   4.1995   4.2004   4.2170   4.2172
  4.2452   4.2726   4.3125   4.3332   4.3421   4.4157   4.4621   4.4695
  4.5841   4.6181   4.6200   4.6349   4.7316   4.8070   4.8426   4.8853
  4.9158   4.9389   4.9787   4.9830   4.9873   5.0701   5.1211   5.1358
  5.1551   5.2082   5.2410   5.2707   5.2858   5.3350   5.3843   5.3961
  5.4022   5.4382   5.4854   5.5382   5.6323   5.6606   5.7409   5.7539
  5.9853   6.3933   6.4049   6.4315   6.4537   6.5242  25.1518  25.4437
 25.4520
 --------------------------------------------------------------
 
 -----------------------------------------------------------------
                    Cartesian Multipole Moments
 -----------------------------------------------------------------
    Charge (ESU x 10^10)
                -0.0000
    Dipole Moment (Debye)
         X       0.0000      Y      -0.2279      Z      -0.1207
       Tot       0.2579
    Quadrupole Moments (Debye-Ang)
        XX     -22.3069     XY      -0.0000     YY     -21.5561
        XZ       0.0000     YZ       0.1434     ZZ     -21.7631
    Octopole Moments (Debye-Ang^2)
       XXX       0.0000    XXY      -1.2550    XYY       0.0000
       YYY      -5.5995    XXZ      -1.0464    XYZ       0.0000
       YYZ       0.5575    XZZ       0.0000    YZZ       0.0121
       ZZZ      -0.6662
    Hexadecapole Moments (Debye-Ang^3)
      XXXX    -197.1480   XXXY       0.0000   XXYY     -41.4959
      XYYY       0.0000   YYYY     -44.2472   XXXZ      -0.0000
      XXYZ       1.9942   XYYZ      -0.0000   YYYZ       0.7735
      XXZZ     -43.8418   XYZZ       0.0000   YYZZ     -18.0442
      XZZZ      -0.0000   YZZZ       0.0904   ZZZZ     -70.6966
 -----------------------------------------------------------------
Archival summary:
1\1\cn0821\SP\ProcedureUnspecified\BasisUnspecified\38\r0852400\SunApr1205:47:512020SunApr1205:47:512020\0\\#,ProcedureUnspecified,BasisUnspecified,\\0,1\C\H,1,1.08831\H,1,1.09673,2,108.377\C,1,1.52134,2,120.788,3,-107.959,0\H,4,1.08855,1,122.649,2,-88.6028,0\H,4,1.09102,1,110.281,2,42.5445,0\H,4,1.0945,1,99.5549,2,151.179,0\C,1,1.52134,2,120.788,3,107.959,0\H,8,1.08855,1,122.649,2,88.6028,0\H,8,1.09102,1,110.281,2,-42.5445,0\H,8,1.0945,1,99.555,2,-151.179,0\\\@

 Total job time:  49.07s(wall), 136.96s(cpu) 
 Sun Apr 12 05:47:51 2020

        *************************************************************
        *                                                           *
        *  Thank you very much for using Q-Chem.  Have a nice day.  *
        *                                                           *
        *************************************************************


