                  Welcome to Q-Chem
     A Quantum Leap Into The Future Of Chemistry


 Q-Chem 5.2 (devel), Q-Chem, Inc., Pleasanton, CA (2019)

 Yihan Shao,  Zhengting Gan,  E. Epifanovsky,  A. T. B. Gilbert,  M. Wormit,  
 J. Kussmann,  A. W. Lange,  A. Behn,  Jia Deng,  Xintian Feng,  D. Ghosh,  
 M. Goldey,  P. R. Horn,  L. D. Jacobson,  I. Kaliman,  T. Kus,  A. Landau,  
 Jie Liu,  E. I. Proynov,  R. M. Richard,  R. P. Steele,  E. J. Sundstrom,  
 H. L. Woodcock III,  P. M. Zimmerman,  D. Zuev,  B. Alam,  B. Albrecht,  
 E. Alguire,  S. A. Baeppler,  D. Barton,  Z. Benda,  Y. A. Bernard,  
 E. J. Berquist,  K. B. Bravaya,  H. Burton,  K. Carter-Fenk,  D. Casanova,  
 Chun-Min Chang,  Yunqing Chen,  A. Chien,  K. D. Closser,  M. P. Coons,  
 S. Coriani,  S. Dasgupta,  A. L. Dempwolff,  M. Diedenhofen,  Hainam Do,  
 R. G. Edgar,  Po-Tung Fang,  S. Faraji,  S. Fatehi,  Qingguo Feng,  
 J. Fosso-Tande,  J. Gayvert,  Qinghui Ge,  A. Ghysels,  G. Gidofalvi,  
 J. Gomes,  J. Gonthier,  A. Gunina,  D. Hait,  M. W. D. Hanson-Heine,  
 P. H. P. Harbach,  A. W. Hauser,  M. F. Herbst,  J. E. Herr,  
 E. G. Hohenstein,  Z. C. Holden,  Kerwin Hui,  B. C. Huynh,  T.-C. Jagau,  
 Hyunjun Ji,  B. Kaduk,  K. Khistyaev,  Jaehoon Kim,  P. Klunzinger,  K. Koh,  
 D. Kosenkov,  L. Koulias,  T. Kowalczyk,  C. M. Krauter,  A. Kunitsa,  
 Ka Un Lao,  A. Laurent,  K. V. Lawler,  Joonho Lee,  D. Lefrancois,  
 S. Lehtola,  D. S. Levine,  Yi-Pei Li,  You-Sheng Lin,  Fenglai Liu,  
 Kuan-Yu Liu,  E. Livshits,  M. Loipersberger,  A. Luenser,  P. Manohar,  
 E. Mansoor,  S. F. Manzer,  Shan-Ping Mao,  Yuezhi Mao,  N. Mardirossian,  
 A. V. Marenich,  T. Markovich,  L. A. Martinez-Martinez,  S. A. Maurer,  
 N. J. Mayhall,  S. C. McKenzie,  J.-M. Mewes,  P. Morgante,  A. F. Morrison,  
 J. W. Mullinax,  K. Nanda,  T. S. Nguyen-Beck,  R. Olivares-Amaya,  
 J. A. Parkhill,  S. K. Paul,  Zheng Pei,  T. M. Perrine,  F. Plasser,  
 P. Pokhilko,  S. Prager,  A. Prociuk,  E. Ramos,  B. Rana,  D. R. Rehn,  
 F. Rob,  M. Scheurer,  M. Schneider,  N. Sergueev,  S. M. Sharada,  
 S. Sharma,  D. W. Small,  T. Stauch,  C. J. Stein,  T. Stein,  Yu-Chuan Su,  
 S. P. Veccham,  A. J. W. Thom,  A. Tkatchenko,  T. Tsuchimochi,  
 N. M. Tubman,  L. Vogt,  M. L. Vidal,  O. Vydrov,  M. A. Watson,  J. Wenzel,  
 M. de Wergifosse,  T. A. Wesolowski,  A. White,  J. Witte,  A. Yamada,  
 Jun Yang,  K. Yao,  S. Yeganeh,  S. R. Yost,  Zhi-Qiang You,  A. Zech,  
 Igor Ying Zhang,  Xing Zhang,  Yan Zhao,  Ying Zhu,  B. R. Brooks,  
 G. K. L. Chan,  C. J. Cramer,  M. S. Gordon,  W. J. Hehre,  A. Klamt,  
 M. W. Schmidt,  C. D. Sherrill,  D. G. Truhlar,  A. Aspuru-Guzik,  R. Baer,  
 A. T. Bell,  N. A. Besley,  Jeng-Da Chai,  A. E. DePrince, III,  
 R. A. DiStasio Jr.,  A. Dreuw,  B. D. Dunietz,  T. R. Furlani,  
 Chao-Ping Hsu,  Yousung Jung,  Jing Kong,  D. S. Lambrecht,  WanZhen Liang,  
 C. Ochsenfeld,  V. A. Rassolov,  L. V. Slipchenko,  J. E. Subotnik,  
 T. Van Voorhis,  J. M. Herbert,  A. I. Krylov,  P. M. W. Gill,  M. Head-Gordon

 Contributors to earlier versions of Q-Chem not listed above: 
 R. D. Adamson,  B. Austin,  J. Baker,  G. J. O. Beran,  K. Brandhorst,  
 S. T. Brown,  E. F. C. Byrd,  A. K. Chakraborty,  C.-L. Cheng,  
 Siu Hung Chien,  D. M. Chipman,  D. L. Crittenden,  H. Dachsel,  
 R. J. Doerksen,  A. D. Dutoi,  L. Fusti-Molnar,  W. A. Goddard III,  
 A. Golubeva-Zadorozhnaya,  S. R. Gwaltney,  G. Hawkins,  A. Heyden,  
 S. Hirata,  G. Kedziora,  F. J. Keil,  C. Kelley,  Jihan Kim,  R. A. King,  
 R. Z. Khaliullin,  P. P. Korambath,  W. Kurlancheek,  A. M. Lee,  M. S. Lee,  
 S. V. Levchenko,  Ching Yeh Lin,  D. Liotard,  R. C. Lochan,  I. Lotan,  
 P. E. Maslen,  N. Nair,  D. P. O'Neill,  D. Neuhauser,  E. Neuscamman,  
 C. M. Oana,  R. Olson,  B. Peters,  R. Peverati,  P. A. Pieniazek,  
 Y. M. Rhee,  J. Ritchie,  M. A. Rohrdanz,  E. Rosta,  N. J. Russ,  
 H. F. Schaefer III,  N. E. Schultz,  N. Shenvi,  A. C. Simmonett,  A. Sodt,  
 D. Stuck,  K. S. Thanthiriwatte,  V. Vanovschi,  Tao Wang,  A. Warshel,  
 C. F. Williams,  Q. Wu,  X. Xu,  W. Zhang

 Please cite Q-Chem as follows:
 Y. Shao et al., Mol. Phys. 113, 184-215 (2015)
 DOI: 10.1080/00268976.2014.952696

 Q-Chem 5.2.2 for Intel X86 EM64T Linux

 Parts of Q-Chem use Armadillo 9.800.1 (Horizon Scraper).
 http://arma.sourceforge.net/

 Q-Chem begins on Sun Apr 12 07:13:13 2020  

Host: cn0821
0

     Scratch files written to /tmp/ypli/6721342.srvc1/qchem185261//
Warning:  Did not find "$end" marker in "$molecule" section

Checking the input file for inconsistencies... 	...done.

--------------------------------------------------------------
User input:
--------------------------------------------------------------
$rem
   JOBTYPE  sp
   EXCHANGE   omegaB97X-D
   BASIS   6-311+G(2df,2pd)
   max_scf_cycles   250
   geom_opt_max_cycles   1500
   basis2 6-31G*
   scf_algorithm rca_diis
   SYM_IGNORE  TRUE
   print_input   true
   geom_opt_dmax   80
   pop_mulliken false
   XC_GRID 000075000302
$end

$molecule
0 1
C       1.2899864848     -0.0001492293     0.3098917391
C       0.0000004392     -0.0006051162     -0.5557264249
H       1.2006058391     -0.9178916166     0.8896051147
H       1.2026194682     0.9179337111     0.8894569620
H       2.0924290140     0.0006838334     -0.4244200082
C       -1.2899855893     -0.0001491909     0.3098915083
H       -0.0000000200     -0.8723797957     -1.2166066796
H       0.0000003582     0.8718320822     -1.2156897425
H       -1.2006069255     -0.9178918565     0.8896047709
H       -2.0924295850     0.0006838346     -0.4244188101
H       -1.2026195445     0.9179340098     0.8894565890
--------------------------------------------------------------
 ----------------------------------------------------------------
             Standard Nuclear Orientation (Angstroms)
    I     Atom           X                Y                Z
 ----------------------------------------------------------------
    1      C       1.2899864848    -0.0001492293     0.3098917391
    2      C       0.0000004392    -0.0006051162    -0.5557264249
    3      H       1.2006058391    -0.9178916166     0.8896051147
    4      H       1.2026194682     0.9179337111     0.8894569620
    5      H       2.0924290140     0.0006838334    -0.4244200082
    6      C      -1.2899855893    -0.0001491909     0.3098915083
    7      H      -0.0000000200    -0.8723797957    -1.2166066796
    8      H       0.0000003582     0.8718320822    -1.2156897425
    9      H      -1.2006069255    -0.9178918565     0.8896047709
   10      H      -2.0924295850     0.0006838346    -0.4244188101
   11      H      -1.2026195445     0.9179340098     0.8894565890
 ----------------------------------------------------------------
 Nuclear Repulsion Energy =          82.62744515 hartrees
 There are       13 alpha and       13 beta electrons
 Requested basis set is 6-311+G(2df,2pd)
 There are 72 shells and 214 basis functions

 Total QAlloc Memory Limit   2000 MB
 Mega-Array Size       188 MB
 MEM_STATIC part       192 MB

                       Distance Matrix (Angstroms)
             C (  1)   C (  2)   H (  3)   H (  4)   H (  5)   C (  6)
   C (  2)  1.553499
   H (  3)  1.089177  2.090897
   H (  4)  1.089222  2.092501  1.835826
   H (  5)  1.087717  2.096545  1.834609  1.832861
   C (  6)  2.579972  1.553499  2.716867  2.718796  3.461205
   H (  7)  2.180607  1.093962  2.424800  3.014468  2.401678  2.180607
   H (  8)  2.179866  1.093937  3.012778  2.424884  2.400680  2.179865
   H (  9)  2.716868  2.090898  2.401213  3.024195  3.662585  1.089177
   H ( 10)  3.461207  2.096546  3.662584  3.664009  4.184859  1.087717
   H ( 11)  2.718797  2.092502  3.024194  2.405239  3.664009  1.089222
             H (  7)   H (  8)   H (  9)   H ( 10)
   H (  8)  1.744212
   H (  9)  2.424800  3.012779
   H ( 10)  2.401679  2.400682  1.834608
   H ( 11)  3.014468  2.424884  1.835827  1.832861
 
 A cutoff of  1.0D-09 yielded   2542 shell pairs
 There are     22596 function pairs (     27777 Cartesian)
 Smallest overlap matrix eigenvalue = 9.23E-05

 Scale SEOQF with 1.000000e-01/1.000000e-01/1.000000e-01

 Standard Electronic Orientation quadrupole field applied
 Nucleus-field energy     =     0.0000000006 hartrees
 Requested basis set is 6-31G(d)
 There are 28 shells and 58 basis functions
 A cutoff of  1.0D-09 yielded    402 shell pairs
 There are      1773 function pairs (      1968 Cartesian)
 Smallest overlap matrix eigenvalue = 6.62E-03
 Guess from superposition of atomic densities
 Warning:  Energy on first SCF cycle will be non-variational
 SAD guess density has 26.000000 electrons
 Long-range K will be added via erf
 Coulomb attenuation parameter = 0.2 bohr**(-1)
 A restricted hybrid HF-DFT SCF calculation will be
 performed using Relaxed Constraint Minimization + Pulay DIIS
 Exchange:     0.2220 Hartree-Fock + 1.0000 wB97X-D + LR-HF
 Correlation:  1.0000 wB97X-D
 Using Euler-Maclaurin-Lebedev (75,302) quadrature formula
 Dispersion:   Grimme D
 SCF converges when DIIS error is below 1.0E-04
 using 3 threads for integral computing
 -------------------------------------------------------
 OpenMP Integral computing Module                
 Release: version 1.0, May 2013, Q-Chem Inc. Pittsburgh 
 -------------------------------------------------------
 using 3 threads for integral computing
 -------------------------------------------------------
 OpenMP Integral computing Module                
 Release: version 1.0, May 2013, Q-Chem Inc. Pittsburgh 
 -------------------------------------------------------
 ---------------------------------------
  Cycle       Energy         DIIS Error
 ---------------------------------------
    1    -119.5803747992      9.90E-02
    2    -119.0521012854      9.00E-03
    3    -119.0737695751      2.64E-03
    4    -119.0870528439      1.81E-03
    5    -119.0878737356      3.21E-04 Done RCA. Switching to DIIS
    6    -119.0884435313      2.36E-04
    7    -119.0884674455      5.26E-06 Convergence criterion met
 ---------------------------------------
 SCF time:  CPU 31.86 s  wall 11.00 s
 SCF   energy in the small basis set = -119.08846745
 Total energy in the small basis set = -119.08846745
 ----------------------------------------------------
  Cycle       Energy    
 ----------------------------------------------------
    1     -16.5278458400     -1.65E+01
 Long-range K will be added via erf
 Coulomb attenuation parameter = 0.2 bohr**(-1)
 A restricted hybrid HF-DFT SCF calculation will be
 performed using Relaxed Constraint Minimization + Pulay DIIS
 Exchange:     0.2220 Hartree-Fock + 1.0000 wB97X-D + LR-HF
 Correlation:  1.0000 wB97X-D
 Using Euler-Maclaurin-Lebedev (75,302) quadrature formula
 Dispersion:   Grimme D
 SCF converges when DIIS error is below 1.0E-05
 Basis2 calculation detected. Using small basis as guess for larger.
 SCFMinFind is unable to tell whether the solution found is close.
 Resetting ReadMinima to 0 and attempting to follow guess.
 SCFMinFind following SCF Guess.
 using 3 threads for integral computing
 -------------------------------------------------------
 OpenMP Integral computing Module                
 Release: version 1.0, May 2013, Q-Chem Inc. Pittsburgh 
 -------------------------------------------------------
 using 3 threads for integral computing
 -------------------------------------------------------
 OpenMP Integral computing Module                
 Release: version 1.0, May 2013, Q-Chem Inc. Pittsburgh 
 -------------------------------------------------------
 ---------------------------------------
  Cycle       Energy         DIIS Error
 ---------------------------------------
    1    -119.1077883543      4.22E-03
    2    -119.1297849674      6.38E-04 Done RCA. Switching to DIIS
    3    -119.1307213773      4.51E-04
    4    -119.1318397392      4.54E-05
    5    -119.1318538489      1.41E-05
    6    -119.1318550234      4.30E-06 Convergence criterion met
 ---------------------------------------
 SCF time:  CPU 95.85 s  wall 32.39 s
 SCF   energy in the final basis set = -119.13185502
 Total energy in the final basis set = -119.13185502
 
 --------------------------------------------------------------
 
                    Orbital Energies (a.u.)
 --------------------------------------------------------------
 
 Alpha MOs
 -- Occupied --
-10.2715 -10.2672 -10.2672  -0.8803  -0.7759  -0.6673  -0.5536  -0.5262
 -0.4846  -0.4756  -0.4115  -0.4099  -0.4006
 -- Virtual --
  0.0694   0.0883   0.0909   0.0964   0.1228   0.1312   0.1318   0.1360
  0.1435   0.1694   0.1713   0.1903   0.2204   0.2406   0.2564   0.2668
  0.2685   0.2804   0.3063   0.3146   0.3297   0.3377   0.4493   0.4604
  0.4713   0.4989   0.5061   0.5167   0.5324   0.5628   0.5917   0.5971
  0.6163   0.6174   0.6234   0.6448   0.6576   0.6606   0.7086   0.7211
  0.7271   0.7618   0.8129   0.8432   0.8658   0.8790   0.9043   0.9474
  0.9993   1.0366   1.0468   1.1051   1.1247   1.1870   1.1923   1.1954
  1.2305   1.2628   1.2774   1.2850   1.2858   1.2891   1.3457   1.3845
  1.3881   1.4002   1.4036   1.4213   1.4529   1.4571   1.4833   1.4883
  1.4894   1.5479   1.5642   1.5791   1.5967   1.6161   1.6492   1.6961
  1.7177   2.4327   2.5067   2.5126   2.5333   2.5785   2.6120   2.6545
  2.6661   2.7152   2.8147   2.8279   2.8766   2.9097   2.9168   2.9329
  2.9411   2.9468   2.9601   2.9735   2.9934   3.0046   3.0127   3.1162
  3.1305   3.1307   3.1574   3.1659   3.1962   3.2064   3.2480   3.2599
  3.2956   3.3147   3.3465   3.3531   3.3692   3.3875   3.3982   3.4260
  3.4573   3.5133   3.5249   3.5445   3.5640   3.5680   3.5764   3.5917
  3.6274   3.6507   3.6744   3.7126   3.7386   3.7741   3.8702   3.8706
  3.8810   3.9165   3.9236   3.9754   3.9883   4.0234   4.0330   4.0593
  4.0751   4.0935   4.0966   4.1043   4.1325   4.1670   4.1742   4.1789
  4.2000   4.2267   4.2604   4.3500   4.4126   4.4131   4.4356   4.4498
  4.4937   4.5648   4.6076   4.6134   4.7090   4.8076   4.8524   4.8575
  4.9252   4.9491   4.9570   4.9959   5.0032   5.0256   5.0561   5.1109
  5.1428   5.1747   5.1775   5.2201   5.2364   5.3260   5.3708   5.4111
  5.5004   5.5099   5.5132   5.5277   5.6643   5.7122   5.7206   5.7460
  5.9610   6.3107   6.3255   6.3569   6.3732   6.4619  25.1644  25.4435
 25.4454
 --------------------------------------------------------------
 
 -----------------------------------------------------------------
                    Cartesian Multipole Moments
 -----------------------------------------------------------------
    Charge (ESU x 10^10)
                -0.0000
    Dipole Moment (Debye)
         X      -0.0000      Y       0.0015      Z      -0.2241
       Tot       0.2241
    Quadrupole Moments (Debye-Ang)
        XX     -23.2345     XY       0.0000     YY     -21.0299
        XZ      -0.0000     YZ       0.0010     ZZ     -22.0703
    Octopole Moments (Debye-Ang^2)
       XXX      -0.0000    XXY       0.0274    XYY      -0.0000
       YYY       0.0147    XXZ      -4.1405    XYZ       0.0000
       YYZ       0.2875    XZZ      -0.0000    YZZ       0.0020
       ZZZ      -2.5631
    Hexadecapole Moments (Debye-Ang^3)
      XXXX    -206.9895   XXXY       0.0000   XXYY     -42.1193
      XYYY       0.0000   YYYY     -44.2679   XXXZ      -0.0000
      XXYZ       0.0050   XYYZ      -0.0000   YYYZ      -0.0020
      XXZZ     -45.5736   XYZZ       0.0000   YYZZ     -17.4034
      XZZZ      -0.0000   YZZZ       0.0023   ZZZZ     -73.5039
 -----------------------------------------------------------------
Archival summary:
1\1\cn0821\SP\ProcedureUnspecified\BasisUnspecified\38\r0852400\SunApr1207:14:002020SunApr1207:14:002020\0\\#,ProcedureUnspecified,BasisUnspecified,\\0,1\C\H,1,1.09394\H,1,1.09396,2,105.729\C,1,1.5535,2,109.629,3,-118.163,0\H,4,1.08772,1,103.676,2,57.8274,0\H,4,1.08918,1,103.19,2,177.928,0\H,4,1.08922,1,103.305,2,-62.128,0\C,1,1.5535,2,109.629,3,118.163,0\H,8,1.08772,1,103.676,2,-57.8274,0\H,8,1.08918,1,103.19,2,-177.928,0\H,8,1.08922,1,103.305,2,62.128,0\\\@

 Total job time:  47.56s(wall), 132.81s(cpu) 
 Sun Apr 12 07:14:00 2020

        *************************************************************
        *                                                           *
        *  Thank you very much for using Q-Chem.  Have a nice day.  *
        *                                                           *
        *************************************************************


