                  Welcome to Q-Chem
     A Quantum Leap Into The Future Of Chemistry


 Q-Chem 5.2 (devel), Q-Chem, Inc., Pleasanton, CA (2019)

 Yihan Shao,  Zhengting Gan,  E. Epifanovsky,  A. T. B. Gilbert,  M. Wormit,  
 J. Kussmann,  A. W. Lange,  A. Behn,  Jia Deng,  Xintian Feng,  D. Ghosh,  
 M. Goldey,  P. R. Horn,  L. D. Jacobson,  I. Kaliman,  T. Kus,  A. Landau,  
 Jie Liu,  E. I. Proynov,  R. M. Richard,  R. P. Steele,  E. J. Sundstrom,  
 H. L. Woodcock III,  P. M. Zimmerman,  D. Zuev,  B. Alam,  B. Albrecht,  
 E. Alguire,  S. A. Baeppler,  D. Barton,  Z. Benda,  Y. A. Bernard,  
 E. J. Berquist,  K. B. Bravaya,  H. Burton,  K. Carter-Fenk,  D. Casanova,  
 Chun-Min Chang,  Yunqing Chen,  A. Chien,  K. D. Closser,  M. P. Coons,  
 S. Coriani,  S. Dasgupta,  A. L. Dempwolff,  M. Diedenhofen,  Hainam Do,  
 R. G. Edgar,  Po-Tung Fang,  S. Faraji,  S. Fatehi,  Qingguo Feng,  
 J. Fosso-Tande,  J. Gayvert,  Qinghui Ge,  A. Ghysels,  G. Gidofalvi,  
 J. Gomes,  J. Gonthier,  A. Gunina,  D. Hait,  M. W. D. Hanson-Heine,  
 P. H. P. Harbach,  A. W. Hauser,  M. F. Herbst,  J. E. Herr,  
 E. G. Hohenstein,  Z. C. Holden,  Kerwin Hui,  B. C. Huynh,  T.-C. Jagau,  
 Hyunjun Ji,  B. Kaduk,  K. Khistyaev,  Jaehoon Kim,  P. Klunzinger,  K. Koh,  
 D. Kosenkov,  L. Koulias,  T. Kowalczyk,  C. M. Krauter,  A. Kunitsa,  
 Ka Un Lao,  A. Laurent,  K. V. Lawler,  Joonho Lee,  D. Lefrancois,  
 S. Lehtola,  D. S. Levine,  Yi-Pei Li,  You-Sheng Lin,  Fenglai Liu,  
 Kuan-Yu Liu,  E. Livshits,  M. Loipersberger,  A. Luenser,  P. Manohar,  
 E. Mansoor,  S. F. Manzer,  Shan-Ping Mao,  Yuezhi Mao,  N. Mardirossian,  
 A. V. Marenich,  T. Markovich,  L. A. Martinez-Martinez,  S. A. Maurer,  
 N. J. Mayhall,  S. C. McKenzie,  J.-M. Mewes,  P. Morgante,  A. F. Morrison,  
 J. W. Mullinax,  K. Nanda,  T. S. Nguyen-Beck,  R. Olivares-Amaya,  
 J. A. Parkhill,  S. K. Paul,  Zheng Pei,  T. M. Perrine,  F. Plasser,  
 P. Pokhilko,  S. Prager,  A. Prociuk,  E. Ramos,  B. Rana,  D. R. Rehn,  
 F. Rob,  M. Scheurer,  M. Schneider,  N. Sergueev,  S. M. Sharada,  
 S. Sharma,  D. W. Small,  T. Stauch,  C. J. Stein,  T. Stein,  Yu-Chuan Su,  
 S. P. Veccham,  A. J. W. Thom,  A. Tkatchenko,  T. Tsuchimochi,  
 N. M. Tubman,  L. Vogt,  M. L. Vidal,  O. Vydrov,  M. A. Watson,  J. Wenzel,  
 M. de Wergifosse,  T. A. Wesolowski,  A. White,  J. Witte,  A. Yamada,  
 Jun Yang,  K. Yao,  S. Yeganeh,  S. R. Yost,  Zhi-Qiang You,  A. Zech,  
 Igor Ying Zhang,  Xing Zhang,  Yan Zhao,  Ying Zhu,  B. R. Brooks,  
 G. K. L. Chan,  C. J. Cramer,  M. S. Gordon,  W. J. Hehre,  A. Klamt,  
 M. W. Schmidt,  C. D. Sherrill,  D. G. Truhlar,  A. Aspuru-Guzik,  R. Baer,  
 A. T. Bell,  N. A. Besley,  Jeng-Da Chai,  A. E. DePrince, III,  
 R. A. DiStasio Jr.,  A. Dreuw,  B. D. Dunietz,  T. R. Furlani,  
 Chao-Ping Hsu,  Yousung Jung,  Jing Kong,  D. S. Lambrecht,  WanZhen Liang,  
 C. Ochsenfeld,  V. A. Rassolov,  L. V. Slipchenko,  J. E. Subotnik,  
 T. Van Voorhis,  J. M. Herbert,  A. I. Krylov,  P. M. W. Gill,  M. Head-Gordon

 Contributors to earlier versions of Q-Chem not listed above: 
 R. D. Adamson,  B. Austin,  J. Baker,  G. J. O. Beran,  K. Brandhorst,  
 S. T. Brown,  E. F. C. Byrd,  A. K. Chakraborty,  C.-L. Cheng,  
 Siu Hung Chien,  D. M. Chipman,  D. L. Crittenden,  H. Dachsel,  
 R. J. Doerksen,  A. D. Dutoi,  L. Fusti-Molnar,  W. A. Goddard III,  
 A. Golubeva-Zadorozhnaya,  S. R. Gwaltney,  G. Hawkins,  A. Heyden,  
 S. Hirata,  G. Kedziora,  F. J. Keil,  C. Kelley,  Jihan Kim,  R. A. King,  
 R. Z. Khaliullin,  P. P. Korambath,  W. Kurlancheek,  A. M. Lee,  M. S. Lee,  
 S. V. Levchenko,  Ching Yeh Lin,  D. Liotard,  R. C. Lochan,  I. Lotan,  
 P. E. Maslen,  N. Nair,  D. P. O'Neill,  D. Neuhauser,  E. Neuscamman,  
 C. M. Oana,  R. Olson,  B. Peters,  R. Peverati,  P. A. Pieniazek,  
 Y. M. Rhee,  J. Ritchie,  M. A. Rohrdanz,  E. Rosta,  N. J. Russ,  
 H. F. Schaefer III,  N. E. Schultz,  N. Shenvi,  A. C. Simmonett,  A. Sodt,  
 D. Stuck,  K. S. Thanthiriwatte,  V. Vanovschi,  Tao Wang,  A. Warshel,  
 C. F. Williams,  Q. Wu,  X. Xu,  W. Zhang

 Please cite Q-Chem as follows:
 Y. Shao et al., Mol. Phys. 113, 184-215 (2015)
 DOI: 10.1080/00268976.2014.952696

 Q-Chem 5.2.2 for Intel X86 EM64T Linux

 Parts of Q-Chem use Armadillo 9.800.1 (Horizon Scraper).
 http://arma.sourceforge.net/

 Q-Chem begins on Sun Apr 12 08:11:51 2020  

Host: cn0821
0

     Scratch files written to /tmp/ypli/6721342.srvc1/qchem193929//
Warning:  Did not find "$end" marker in "$molecule" section

Checking the input file for inconsistencies... 	...done.

--------------------------------------------------------------
User input:
--------------------------------------------------------------
$rem
   JOBTYPE  sp
   EXCHANGE   omegaB97X-D
   BASIS   6-311+G(2df,2pd)
   max_scf_cycles   250
   geom_opt_max_cycles   1500
   basis2 6-31G*
   scf_algorithm rca_diis
   SYM_IGNORE  TRUE
   print_input   true
   geom_opt_dmax   80
   pop_mulliken false
   XC_GRID 000075000302
$end

$molecule
0 1
C       1.2671197341     0.0045031161     0.2591488750
C       0.0000000404     -0.0281392589     -0.5871456247
H       1.3063819306     -0.9116841686     0.9421276655
H       1.3042447402     0.8497031150     0.8654649827
H       2.1639230162     -0.0076797564     -0.3598005169
C       -1.2671196062     0.0045028640     0.2591488931
H       0.0000001175     -0.7938977029     -1.1572752371
H       -0.0000001356     0.9523516879     -1.3284161142
H       -1.3063816228     -0.9116836558     0.9421272794
H       -2.1639234664     -0.0076795124     -0.3598008684
H       -1.3042448085     0.8497039380     0.8654656845
--------------------------------------------------------------
 ----------------------------------------------------------------
             Standard Nuclear Orientation (Angstroms)
    I     Atom           X                Y                Z
 ----------------------------------------------------------------
    1      C       1.2671197341     0.0045031161     0.2591488750
    2      C       0.0000000404    -0.0281392589    -0.5871456247
    3      H       1.3063819306    -0.9116841686     0.9421276655
    4      H       1.3042447402     0.8497031150     0.8654649827
    5      H       2.1639230162    -0.0076797564    -0.3598005169
    6      C      -1.2671196062     0.0045028640     0.2591488931
    7      H       0.0000001175    -0.7938977029    -1.1572752371
    8      H      -0.0000001356     0.9523516879    -1.3284161142
    9      H      -1.3063816228    -0.9116836558     0.9421272794
   10      H      -2.1639234664    -0.0076795124    -0.3598008684
   11      H      -1.3042448085     0.8497039380     0.8654656845
 ----------------------------------------------------------------
 Nuclear Repulsion Energy =          82.86411193 hartrees
 There are       13 alpha and       13 beta electrons
 Requested basis set is 6-311+G(2df,2pd)
 There are 72 shells and 214 basis functions

 Total QAlloc Memory Limit   2000 MB
 Mega-Array Size       188 MB
 MEM_STATIC part       192 MB

                       Distance Matrix (Angstroms)
             C (  1)   C (  2)   H (  3)   H (  4)   H (  5)   C (  6)
   C (  2)  1.524097
   H (  3)  1.143416  2.196807
   H (  4)  1.040846  2.140500  1.763056
   H (  5)  1.089726  2.175929  1.802115  1.724943
   C (  6)  2.534239  1.524097  2.815807  2.773788  3.486445
   H (  7)  2.061381  0.954690  2.475480  2.914439  2.436528  2.061381
   H (  8)  2.241511  1.229164  3.215063  2.554350  2.557819  2.241511
   H (  9)  2.815807  2.196807  2.612764  3.150195  3.815135  1.143415
   H ( 10)  3.486446  2.175929  3.815136  3.776847  4.327846  1.089727
   H ( 11)  2.773788  2.140501  3.150196  2.608490  3.776847  1.040847
             H (  7)   H (  8)   H (  9)   H ( 10)
   H (  8)  1.754616
   H (  9)  2.475479  3.215063
   H ( 10)  2.436528  2.557819  1.802115
   H ( 11)  2.914440  2.554351  1.763056  1.724944
 
 A cutoff of  1.0D-09 yielded   2530 shell pairs
 There are     22528 function pairs (     27697 Cartesian)
 Smallest overlap matrix eigenvalue = 8.63E-05

 Scale SEOQF with 1.000000e-01/1.000000e-01/1.000000e-01

 Standard Electronic Orientation quadrupole field applied
 Nucleus-field energy     =     0.0000000006 hartrees
 Requested basis set is 6-31G(d)
 There are 28 shells and 58 basis functions
 A cutoff of  1.0D-09 yielded    402 shell pairs
 There are      1773 function pairs (      1968 Cartesian)
 Smallest overlap matrix eigenvalue = 6.73E-03
 Guess from superposition of atomic densities
 Warning:  Energy on first SCF cycle will be non-variational
 SAD guess density has 26.000000 electrons
 Long-range K will be added via erf
 Coulomb attenuation parameter = 0.2 bohr**(-1)
 A restricted hybrid HF-DFT SCF calculation will be
 performed using Relaxed Constraint Minimization + Pulay DIIS
 Exchange:     0.2220 Hartree-Fock + 1.0000 wB97X-D + LR-HF
 Correlation:  1.0000 wB97X-D
 Using Euler-Maclaurin-Lebedev (75,302) quadrature formula
 Dispersion:   Grimme D
 SCF converges when DIIS error is below 1.0E-04
 using 3 threads for integral computing
 -------------------------------------------------------
 OpenMP Integral computing Module                
 Release: version 1.0, May 2013, Q-Chem Inc. Pittsburgh 
 -------------------------------------------------------
 using 3 threads for integral computing
 -------------------------------------------------------
 OpenMP Integral computing Module                
 Release: version 1.0, May 2013, Q-Chem Inc. Pittsburgh 
 -------------------------------------------------------
 ---------------------------------------
  Cycle       Energy         DIIS Error
 ---------------------------------------
    1    -119.6153515481      1.02E-01
    2    -119.0348531322      9.15E-03
    3    -119.0568276776      2.53E-03
    4    -119.0713583067      1.73E-03
    5    -119.0720973714      2.71E-04 Done RCA. Switching to DIIS
    6    -119.0726446199      2.00E-04
    7    -119.0726621372      5.19E-06 Convergence criterion met
 ---------------------------------------
 SCF time:  CPU 33.45 s  wall 11.59 s
 SCF   energy in the small basis set = -119.07266214
 Total energy in the small basis set = -119.07266214
 ----------------------------------------------------
  Cycle       Energy    
 ----------------------------------------------------
    1     -16.5516625133     -1.66E+01
 Long-range K will be added via erf
 Coulomb attenuation parameter = 0.2 bohr**(-1)
 A restricted hybrid HF-DFT SCF calculation will be
 performed using Relaxed Constraint Minimization + Pulay DIIS
 Exchange:     0.2220 Hartree-Fock + 1.0000 wB97X-D + LR-HF
 Correlation:  1.0000 wB97X-D
 Using Euler-Maclaurin-Lebedev (75,302) quadrature formula
 Dispersion:   Grimme D
 SCF converges when DIIS error is below 1.0E-05
 Basis2 calculation detected. Using small basis as guess for larger.
 SCFMinFind is unable to tell whether the solution found is close.
 Resetting ReadMinima to 0 and attempting to follow guess.
 SCFMinFind following SCF Guess.
 using 3 threads for integral computing
 -------------------------------------------------------
 OpenMP Integral computing Module                
 Release: version 1.0, May 2013, Q-Chem Inc. Pittsburgh 
 -------------------------------------------------------
 using 3 threads for integral computing
 -------------------------------------------------------
 OpenMP Integral computing Module                
 Release: version 1.0, May 2013, Q-Chem Inc. Pittsburgh 
 -------------------------------------------------------
 ---------------------------------------
  Cycle       Energy         DIIS Error
 ---------------------------------------
    1    -119.0930740022      4.21E-03
    2    -119.1150874746      5.87E-04 Done RCA. Switching to DIIS
    3    -119.1159016326      4.10E-04
    4    -119.1168258894      4.59E-05
    5    -119.1168408231      1.06E-05
    6    -119.1168415559      4.03E-06 Convergence criterion met
 ---------------------------------------
 SCF time:  CPU 98.67 s  wall 33.34 s
 SCF   energy in the final basis set = -119.11684156
 Total energy in the final basis set = -119.11684156
 
 --------------------------------------------------------------
 
                    Orbital Energies (a.u.)
 --------------------------------------------------------------
 
 Alpha MOs
 -- Occupied --
-10.2728 -10.2655 -10.2655  -0.8841  -0.7785  -0.6862  -0.5449  -0.5232
 -0.4880  -0.4595  -0.4317  -0.4195  -0.3953
 -- Virtual --
  0.0691   0.0858   0.0901   0.0982   0.1248   0.1298   0.1334   0.1419
  0.1431   0.1693   0.1717   0.1906   0.2207   0.2407   0.2432   0.2637
  0.2843   0.2854   0.3128   0.3132   0.3366   0.3501   0.4584   0.4676
  0.4708   0.5060   0.5140   0.5170   0.5447   0.5617   0.5830   0.5836
  0.6236   0.6248   0.6349   0.6412   0.6587   0.6601   0.7127   0.7292
  0.7382   0.7680   0.8293   0.8581   0.8706   0.8773   0.8869   0.9577
  1.0013   1.0462   1.0622   1.1389   1.1402   1.1715   1.1829   1.2033
  1.2133   1.2477   1.2704   1.2737   1.2923   1.2947   1.3265   1.3774
  1.3807   1.3946   1.3983   1.4365   1.4665   1.4677   1.4733   1.4788
  1.5278   1.5822   1.6100   1.6209   1.6484   1.6572   1.6884   1.6941
  1.7820   2.3627   2.3856   2.4756   2.5023   2.5740   2.5798   2.6145
  2.6508   2.7144   2.8184   2.8325   2.8340   2.8662   2.9239   2.9254
  2.9371   2.9402   2.9950   3.0240   3.0412   3.0588   3.0860   3.1144
  3.1367   3.1577   3.1633   3.1743   3.2180   3.2261   3.2509   3.2967
  3.3343   3.3356   3.3381   3.3633   3.3698   3.3798   3.4197   3.4323
  3.4412   3.4908   3.4934   3.4970   3.5591   3.5693   3.5939   3.6162
  3.6215   3.6893   3.6894   3.7097   3.7649   3.7682   3.8531   3.8852
  3.9201   3.9208   3.9452   3.9651   3.9754   3.9878   4.0570   4.0673
  4.0923   4.1013   4.1101   4.1131   4.1538   4.1655   4.1943   4.2096
  4.2319   4.2511   4.2634   4.3667   4.3721   4.4045   4.4188   4.4241
  4.4577   4.4633   4.5746   4.6263   4.7405   4.8007   4.8208   4.8680
  4.8830   4.9150   4.9483   4.9653   5.0004   5.0047   5.0856   5.1511
  5.1905   5.2379   5.2420   5.2741   5.3145   5.3452   5.3685   5.3907
  5.4103   5.4389   5.4798   5.5525   5.6881   5.7039   5.7553   5.8472
  5.8910   6.3240   6.3324   6.4538   6.4795   6.5611  25.1189  25.4325
 25.4443
 --------------------------------------------------------------
 
 -----------------------------------------------------------------
                    Cartesian Multipole Moments
 -----------------------------------------------------------------
    Charge (ESU x 10^10)
                -0.0000
    Dipole Moment (Debye)
         X       0.0000      Y      -0.0458      Z      -0.0500
       Tot       0.0678
    Quadrupole Moments (Debye-Ang)
        XX     -22.1134     XY       0.0000     YY     -21.3759
        XZ      -0.0000     YZ       0.2567     ZZ     -21.9194
    Octopole Moments (Debye-Ang^2)
       XXX       0.0000    XXY       0.3699    XYY       0.0000
       YYY       0.0880    XXZ      -1.5290    XYZ       0.0000
       YYZ       0.5434    XZZ       0.0000    YZZ      -0.1313
       ZZZ      -0.2115
    Hexadecapole Moments (Debye-Ang^3)
      XXXX    -201.8989   XXXY       0.0000   XXYY     -42.2365
      XYYY       0.0000   YYYY     -44.4661   XXXZ       0.0000
      XXYZ       1.1438   XYYZ      -0.0000   YYYZ       2.3825
      XXZZ     -45.3955   XYZZ       0.0000   YYZZ     -17.2347
      XZZZ      -0.0000   YZZZ       2.6249   ZZZZ     -73.0050
 -----------------------------------------------------------------
Archival summary:
1\1\cn0821\SP\ProcedureUnspecified\BasisUnspecified\38\r0852400\SunApr1208:12:402020SunApr1208:12:402020\0\\#,ProcedureUnspecified,BasisUnspecified,\\0,1\C\H,1,0.95469\H,1,1.22916,2,106.241\C,1,1.5241,2,110.413,3,117.489,0\H,4,1.04085,1,111.747,2,-178.016,0\H,4,1.08973,1,111.628,2,-56.8264,0\H,4,1.14342,1,110.063,2,62.5619,0\C,1,1.5241,2,110.413,3,-117.489,0\H,8,1.04085,1,111.747,2,178.016,0\H,8,1.08973,1,111.628,2,56.8263,0\H,8,1.14342,1,110.063,2,-62.5619,0\\\@

 Total job time:  49.36s(wall), 137.50s(cpu) 
 Sun Apr 12 08:12:40 2020

        *************************************************************
        *                                                           *
        *  Thank you very much for using Q-Chem.  Have a nice day.  *
        *                                                           *
        *************************************************************


