                  Welcome to Q-Chem
     A Quantum Leap Into The Future Of Chemistry


 Q-Chem 5.2 (devel), Q-Chem, Inc., Pleasanton, CA (2019)

 Yihan Shao,  Zhengting Gan,  E. Epifanovsky,  A. T. B. Gilbert,  M. Wormit,  
 J. Kussmann,  A. W. Lange,  A. Behn,  Jia Deng,  Xintian Feng,  D. Ghosh,  
 M. Goldey,  P. R. Horn,  L. D. Jacobson,  I. Kaliman,  T. Kus,  A. Landau,  
 Jie Liu,  E. I. Proynov,  R. M. Richard,  R. P. Steele,  E. J. Sundstrom,  
 H. L. Woodcock III,  P. M. Zimmerman,  D. Zuev,  B. Alam,  B. Albrecht,  
 E. Alguire,  S. A. Baeppler,  D. Barton,  Z. Benda,  Y. A. Bernard,  
 E. J. Berquist,  K. B. Bravaya,  H. Burton,  K. Carter-Fenk,  D. Casanova,  
 Chun-Min Chang,  Yunqing Chen,  A. Chien,  K. D. Closser,  M. P. Coons,  
 S. Coriani,  S. Dasgupta,  A. L. Dempwolff,  M. Diedenhofen,  Hainam Do,  
 R. G. Edgar,  Po-Tung Fang,  S. Faraji,  S. Fatehi,  Qingguo Feng,  
 J. Fosso-Tande,  J. Gayvert,  Qinghui Ge,  A. Ghysels,  G. Gidofalvi,  
 J. Gomes,  J. Gonthier,  A. Gunina,  D. Hait,  M. W. D. Hanson-Heine,  
 P. H. P. Harbach,  A. W. Hauser,  M. F. Herbst,  J. E. Herr,  
 E. G. Hohenstein,  Z. C. Holden,  Kerwin Hui,  B. C. Huynh,  T.-C. Jagau,  
 Hyunjun Ji,  B. Kaduk,  K. Khistyaev,  Jaehoon Kim,  P. Klunzinger,  K. Koh,  
 D. Kosenkov,  L. Koulias,  T. Kowalczyk,  C. M. Krauter,  A. Kunitsa,  
 Ka Un Lao,  A. Laurent,  K. V. Lawler,  Joonho Lee,  D. Lefrancois,  
 S. Lehtola,  D. S. Levine,  Yi-Pei Li,  You-Sheng Lin,  Fenglai Liu,  
 Kuan-Yu Liu,  E. Livshits,  M. Loipersberger,  A. Luenser,  P. Manohar,  
 E. Mansoor,  S. F. Manzer,  Shan-Ping Mao,  Yuezhi Mao,  N. Mardirossian,  
 A. V. Marenich,  T. Markovich,  L. A. Martinez-Martinez,  S. A. Maurer,  
 N. J. Mayhall,  S. C. McKenzie,  J.-M. Mewes,  P. Morgante,  A. F. Morrison,  
 J. W. Mullinax,  K. Nanda,  T. S. Nguyen-Beck,  R. Olivares-Amaya,  
 J. A. Parkhill,  S. K. Paul,  Zheng Pei,  T. M. Perrine,  F. Plasser,  
 P. Pokhilko,  S. Prager,  A. Prociuk,  E. Ramos,  B. Rana,  D. R. Rehn,  
 F. Rob,  M. Scheurer,  M. Schneider,  N. Sergueev,  S. M. Sharada,  
 S. Sharma,  D. W. Small,  T. Stauch,  C. J. Stein,  T. Stein,  Yu-Chuan Su,  
 S. P. Veccham,  A. J. W. Thom,  A. Tkatchenko,  T. Tsuchimochi,  
 N. M. Tubman,  L. Vogt,  M. L. Vidal,  O. Vydrov,  M. A. Watson,  J. Wenzel,  
 M. de Wergifosse,  T. A. Wesolowski,  A. White,  J. Witte,  A. Yamada,  
 Jun Yang,  K. Yao,  S. Yeganeh,  S. R. Yost,  Zhi-Qiang You,  A. Zech,  
 Igor Ying Zhang,  Xing Zhang,  Yan Zhao,  Ying Zhu,  B. R. Brooks,  
 G. K. L. Chan,  C. J. Cramer,  M. S. Gordon,  W. J. Hehre,  A. Klamt,  
 M. W. Schmidt,  C. D. Sherrill,  D. G. Truhlar,  A. Aspuru-Guzik,  R. Baer,  
 A. T. Bell,  N. A. Besley,  Jeng-Da Chai,  A. E. DePrince, III,  
 R. A. DiStasio Jr.,  A. Dreuw,  B. D. Dunietz,  T. R. Furlani,  
 Chao-Ping Hsu,  Yousung Jung,  Jing Kong,  D. S. Lambrecht,  WanZhen Liang,  
 C. Ochsenfeld,  V. A. Rassolov,  L. V. Slipchenko,  J. E. Subotnik,  
 T. Van Voorhis,  J. M. Herbert,  A. I. Krylov,  P. M. W. Gill,  M. Head-Gordon

 Contributors to earlier versions of Q-Chem not listed above: 
 R. D. Adamson,  B. Austin,  J. Baker,  G. J. O. Beran,  K. Brandhorst,  
 S. T. Brown,  E. F. C. Byrd,  A. K. Chakraborty,  C.-L. Cheng,  
 Siu Hung Chien,  D. M. Chipman,  D. L. Crittenden,  H. Dachsel,  
 R. J. Doerksen,  A. D. Dutoi,  L. Fusti-Molnar,  W. A. Goddard III,  
 A. Golubeva-Zadorozhnaya,  S. R. Gwaltney,  G. Hawkins,  A. Heyden,  
 S. Hirata,  G. Kedziora,  F. J. Keil,  C. Kelley,  Jihan Kim,  R. A. King,  
 R. Z. Khaliullin,  P. P. Korambath,  W. Kurlancheek,  A. M. Lee,  M. S. Lee,  
 S. V. Levchenko,  Ching Yeh Lin,  D. Liotard,  R. C. Lochan,  I. Lotan,  
 P. E. Maslen,  N. Nair,  D. P. O'Neill,  D. Neuhauser,  E. Neuscamman,  
 C. M. Oana,  R. Olson,  B. Peters,  R. Peverati,  P. A. Pieniazek,  
 Y. M. Rhee,  J. Ritchie,  M. A. Rohrdanz,  E. Rosta,  N. J. Russ,  
 H. F. Schaefer III,  N. E. Schultz,  N. Shenvi,  A. C. Simmonett,  A. Sodt,  
 D. Stuck,  K. S. Thanthiriwatte,  V. Vanovschi,  Tao Wang,  A. Warshel,  
 C. F. Williams,  Q. Wu,  X. Xu,  W. Zhang

 Please cite Q-Chem as follows:
 Y. Shao et al., Mol. Phys. 113, 184-215 (2015)
 DOI: 10.1080/00268976.2014.952696

 Q-Chem 5.2.2 for Intel X86 EM64T Linux

 Parts of Q-Chem use Armadillo 9.800.1 (Horizon Scraper).
 http://arma.sourceforge.net/

 Q-Chem begins on Sun Apr 12 05:53:09 2020  

Host: cn0821
0

     Scratch files written to /tmp/ypli/6721342.srvc1/qchem172826//
Warning:  Did not find "$end" marker in "$molecule" section

Checking the input file for inconsistencies... 	...done.

--------------------------------------------------------------
User input:
--------------------------------------------------------------
$rem
   JOBTYPE  sp
   EXCHANGE   omegaB97X-D
   BASIS   6-311+G(2df,2pd)
   max_scf_cycles   250
   geom_opt_max_cycles   1500
   basis2 6-31G*
   scf_algorithm rca_diis
   SYM_IGNORE  TRUE
   print_input   true
   geom_opt_dmax   80
   pop_mulliken false
   XC_GRID 000075000302
$end

$molecule
0 1
C       1.4148886819     0.0067942431     0.2594373697
C       -0.0000001247     0.0033232138     -0.7912549024
H       1.2872574411     -0.8626123818     0.9109798287
H       1.2986115073     0.8631481070     0.9287755121
H       2.4496187595     -0.0056124607     -0.0899705567
C       -1.4148894737     0.0067939631     0.2594364902
H       0.0000012643     -0.8798102209     -1.4339583338
H       -0.0000000581     0.8730515863     -1.4521854116
H       -1.2872572380     -0.8626116299     0.9109801356
H       -2.4496201849     -0.0056116055     -0.0899694532
H       -1.2986106353     0.8631478513     0.9287743402
--------------------------------------------------------------
 ----------------------------------------------------------------
             Standard Nuclear Orientation (Angstroms)
    I     Atom           X                Y                Z
 ----------------------------------------------------------------
    1      C       1.4148886819     0.0067942431     0.2594373697
    2      C      -0.0000001247     0.0033232138    -0.7912549024
    3      H       1.2872574411    -0.8626123818     0.9109798287
    4      H       1.2986115073     0.8631481070     0.9287755121
    5      H       2.4496187595    -0.0056124607    -0.0899705567
    6      C      -1.4148894737     0.0067939631     0.2594364902
    7      H       0.0000012643    -0.8798102209    -1.4339583338
    8      H      -0.0000000581     0.8730515863    -1.4521854116
    9      H      -1.2872572380    -0.8626116299     0.9109801356
   10      H      -2.4496201849    -0.0056116055    -0.0899694532
   11      H      -1.2986106353     0.8631478513     0.9287743402
 ----------------------------------------------------------------
 Nuclear Repulsion Energy =          76.57415574 hartrees
 There are       13 alpha and       13 beta electrons
 Requested basis set is 6-311+G(2df,2pd)
 There are 72 shells and 214 basis functions

 Total QAlloc Memory Limit   2000 MB
 Mega-Array Size       188 MB
 MEM_STATIC part       192 MB

                       Distance Matrix (Angstroms)
             C (  1)   C (  2)   H (  3)   H (  4)   H (  5)   C (  6)
   C (  2)  1.762350
   H (  3)  1.093922  2.303146
   H (  4)  1.093104  2.320387  1.725890
   H (  5)  1.092202  2.548041  1.757110  1.765618
   C (  6)  2.829778  1.762350  2.912383  2.923088  3.880292
   H (  7)  2.378143  1.092242  2.675081  3.210421  2.927653  2.378144
   H (  8)  2.383687  1.092363  3.202204  2.712096  2.937399  2.383687
   H (  9)  2.912382  2.303145  2.574515  3.108903  3.962397  1.093922
   H ( 10)  3.880292  2.548042  3.962399  3.980179  4.899239  1.092202
   H ( 11)  2.923086  2.320385  3.108903  2.597222  3.980177  1.093104
             H (  7)   H (  8)   H (  9)   H ( 10)
   H (  8)  1.752957
   H (  9)  2.675083  3.202204
   H ( 10)  2.927657  2.937400  1.757110
   H ( 11)  3.210421  2.712095  1.725889  1.765617
 
 A cutoff of  1.0D-09 yielded   2498 shell pairs
 There are     22270 function pairs (     27379 Cartesian)
 Smallest overlap matrix eigenvalue = 2.09E-04

 Scale SEOQF with 1.000000e-01/1.000000e-01/1.000000e-01

 Standard Electronic Orientation quadrupole field applied
 Nucleus-field energy     =     0.0000000005 hartrees
 Requested basis set is 6-31G(d)
 There are 28 shells and 58 basis functions
 A cutoff of  1.0D-09 yielded    402 shell pairs
 There are      1773 function pairs (      1968 Cartesian)
 Smallest overlap matrix eigenvalue = 1.22E-02
 Guess from superposition of atomic densities
 Warning:  Energy on first SCF cycle will be non-variational
 SAD guess density has 26.000000 electrons
 Long-range K will be added via erf
 Coulomb attenuation parameter = 0.2 bohr**(-1)
 A restricted hybrid HF-DFT SCF calculation will be
 performed using Relaxed Constraint Minimization + Pulay DIIS
 Exchange:     0.2220 Hartree-Fock + 1.0000 wB97X-D + LR-HF
 Correlation:  1.0000 wB97X-D
 Using Euler-Maclaurin-Lebedev (75,302) quadrature formula
 Dispersion:   Grimme D
 SCF converges when DIIS error is below 1.0E-04
 using 3 threads for integral computing
 -------------------------------------------------------
 OpenMP Integral computing Module                
 Release: version 1.0, May 2013, Q-Chem Inc. Pittsburgh 
 -------------------------------------------------------
 using 3 threads for integral computing
 -------------------------------------------------------
 OpenMP Integral computing Module                
 Release: version 1.0, May 2013, Q-Chem Inc. Pittsburgh 
 -------------------------------------------------------
 ---------------------------------------
  Cycle       Energy         DIIS Error
 ---------------------------------------
    1    -119.1005555896      8.53E-02
    2    -119.0278502763      7.36E-03
    3    -119.0425635053      2.42E-03
    4    -119.0510064589      1.73E-03
    5    -119.0517307503      2.55E-04 Done RCA. Switching to DIIS
    6    -119.0522874986      2.24E-04
    7    -119.0523093936      4.00E-06 Convergence criterion met
 ---------------------------------------
 SCF time:  CPU 32.98 s  wall 11.37 s
 SCF   energy in the small basis set = -119.05230939
 Total energy in the small basis set = -119.05230939
 ----------------------------------------------------
  Cycle       Energy    
 ----------------------------------------------------
    1     -16.3756177565     -1.64E+01
 Long-range K will be added via erf
 Coulomb attenuation parameter = 0.2 bohr**(-1)
 A restricted hybrid HF-DFT SCF calculation will be
 performed using Relaxed Constraint Minimization + Pulay DIIS
 Exchange:     0.2220 Hartree-Fock + 1.0000 wB97X-D + LR-HF
 Correlation:  1.0000 wB97X-D
 Using Euler-Maclaurin-Lebedev (75,302) quadrature formula
 Dispersion:   Grimme D
 SCF converges when DIIS error is below 1.0E-05
 Basis2 calculation detected. Using small basis as guess for larger.
 SCFMinFind is unable to tell whether the solution found is close.
 Resetting ReadMinima to 0 and attempting to follow guess.
 SCFMinFind following SCF Guess.
 using 3 threads for integral computing
 -------------------------------------------------------
 OpenMP Integral computing Module                
 Release: version 1.0, May 2013, Q-Chem Inc. Pittsburgh 
 -------------------------------------------------------
 using 3 threads for integral computing
 -------------------------------------------------------
 OpenMP Integral computing Module                
 Release: version 1.0, May 2013, Q-Chem Inc. Pittsburgh 
 -------------------------------------------------------
 ---------------------------------------
  Cycle       Energy         DIIS Error
 ---------------------------------------
    1    -119.0709875502      4.22E-03
    2    -119.0932731648      5.79E-04 Done RCA. Switching to DIIS
    3    -119.0941760348      3.78E-04
    4    -119.0949811786      4.08E-05
    5    -119.0949940558      7.86E-06 Convergence criterion met
 ---------------------------------------
 SCF time:  CPU 79.22 s  wall 26.80 s

 Q-Chem warning in module 0, line  198:

 OriOrb: Failure to resolve orbital degeneracies.


 Q-Chem warning in module 0, line  198:

 OriOrb: Failure to resolve orbital degeneracies.

 SCF   energy in the final basis set = -119.09499406
 Total energy in the final basis set = -119.09499406
 
 --------------------------------------------------------------
 
                    Orbital Energies (a.u.)
 --------------------------------------------------------------
 
 Alpha MOs
 -- Occupied --
-10.3116 -10.2839 -10.2839  -0.8321  -0.7675  -0.6991  -0.5182  -0.5089
 -0.4637  -0.4583  -0.4290  -0.4075  -0.4064
 -- Virtual --
  0.0699   0.0803   0.0844   0.1047   0.1221   0.1299   0.1332   0.1422
  0.1457   0.1635   0.1730   0.1924   0.2052   0.2164   0.2377   0.2490
  0.2546   0.2637   0.2817   0.2893   0.3306   0.3336   0.4450   0.4550
  0.4717   0.5061   0.5169   0.5357   0.5585   0.5596   0.5775   0.5836
  0.5908   0.5958   0.6174   0.6227   0.6439   0.6496   0.7041   0.7080
  0.7208   0.7525   0.7724   0.8039   0.8447   0.8590   0.9128   0.9401
  1.0022   1.0105   1.0142   1.0729   1.1050   1.1683   1.1730   1.1788
  1.1865   1.1956   1.2306   1.2384   1.2499   1.2735   1.2794   1.2926
  1.3067   1.3567   1.3719   1.4355   1.4493   1.4576   1.4585   1.4821
  1.4947   1.5188   1.5913   1.6081   1.6117   1.6501   1.6676   1.6722
  1.7159   2.3672   2.3786   2.4488   2.4551   2.4755   2.4886   2.5420
  2.5496   2.5843   2.6777   2.6904   2.8009   2.8361   2.8426   2.9227
  2.9287   2.9339   2.9686   3.0090   3.0396   3.0566   3.0805   3.1073
  3.1082   3.1433   3.1491   3.1610   3.1633   3.1995   3.2401   3.2459
  3.2880   3.2936   3.3108   3.3333   3.3383   3.3474   3.3486   3.3773
  3.3844   3.3894   3.4296   3.5025   3.5415   3.5476   3.5587   3.5729
  3.6075   3.6169   3.6345   3.6596   3.6602   3.6633   3.7029   3.7800
  3.7865   3.7971   3.8538   3.8659   3.8918   3.9130   3.9729   3.9752
  4.0118   4.0163   4.0495   4.0598   4.0873   4.0991   4.1111   4.1844
  4.1896   4.2010   4.2316   4.2569   4.2864   4.3010   4.3043   4.3512
  4.3598   4.4131   4.4593   4.5184   4.5959   4.6210   4.8175   4.8293
  4.8344   4.8661   4.9104   4.9268   4.9641   4.9961   5.0092   5.0490
  5.0818   5.1355   5.1580   5.1662   5.1672   5.1834   5.2184   5.2736
  5.2865   5.3152   5.3158   5.3263   5.3506   5.3760   5.4147   5.5293
  5.6476   6.3486   6.3705   6.3940   6.4201   6.4347  24.9331  25.3118
 25.3523
 --------------------------------------------------------------
 
 -----------------------------------------------------------------
                    Cartesian Multipole Moments
 -----------------------------------------------------------------
    Charge (ESU x 10^10)
                -0.0000
    Dipole Moment (Debye)
         X       0.0000      Y      -0.0205      Z       0.0875
       Tot       0.0899
    Quadrupole Moments (Debye-Ang)
        XX     -21.1450     XY      -0.0000     YY     -21.8637
        XZ      -0.0000     YZ       0.0401     ZZ     -21.8896
    Octopole Moments (Debye-Ang^2)
       XXX      -0.0000    XXY      -0.1611    XYY       0.0000
       YYY      -0.2668    XXZ       0.8024    XYZ       0.0000
       YYZ       1.1697    XZZ       0.0000    YZZ      -0.0003
       ZZZ       1.8959
    Hexadecapole Moments (Debye-Ang^3)
      XXXX    -220.6224   XXXY      -0.0000   XXYY     -49.5546
      XYYY      -0.0000   YYYY     -44.3451   XXXZ      -0.0000
      XXYZ       0.0926   XYYZ      -0.0000   YYYZ      -0.0106
      XXZZ     -56.1733   XYZZ       0.0000   YYZZ     -18.5820
      XZZZ      -0.0000   YZZZ      -0.0018   ZZZZ     -84.6752
 -----------------------------------------------------------------
Archival summary:
1\1\cn0821\SP\ProcedureUnspecified\BasisUnspecified\38\r0852400\SunApr1205:53:532020SunApr1205:53:532020\0\\#,ProcedureUnspecified,BasisUnspecified,\\0,1\C\H,1,1.09224\H,1,1.09236,2,106.722\C,1,1.76235,2,110.635,3,120.921,0\H,4,1.0922,1,124.74,2,-58.8118,0\H,4,1.0931,1,106.332,2,174.983,0\H,4,1.09392,1,105.061,2,64.8747,0\C,1,1.76235,2,110.634,3,-120.921,0\H,8,1.0922,1,124.74,2,58.8117,0\H,8,1.0931,1,106.332,2,-174.983,0\H,8,1.09392,1,105.062,2,-64.8746,0\\\@

 Total job time:  43.28s(wall), 120.22s(cpu) 
 Sun Apr 12 05:53:53 2020

        *************************************************************
        *                                                           *
        *  Thank you very much for using Q-Chem.  Have a nice day.  *
        *                                                           *
        *************************************************************


