                  Welcome to Q-Chem
     A Quantum Leap Into The Future Of Chemistry


 Q-Chem 5.2 (devel), Q-Chem, Inc., Pleasanton, CA (2019)

 Yihan Shao,  Zhengting Gan,  E. Epifanovsky,  A. T. B. Gilbert,  M. Wormit,  
 J. Kussmann,  A. W. Lange,  A. Behn,  Jia Deng,  Xintian Feng,  D. Ghosh,  
 M. Goldey,  P. R. Horn,  L. D. Jacobson,  I. Kaliman,  T. Kus,  A. Landau,  
 Jie Liu,  E. I. Proynov,  R. M. Richard,  R. P. Steele,  E. J. Sundstrom,  
 H. L. Woodcock III,  P. M. Zimmerman,  D. Zuev,  B. Alam,  B. Albrecht,  
 E. Alguire,  S. A. Baeppler,  D. Barton,  Z. Benda,  Y. A. Bernard,  
 E. J. Berquist,  K. B. Bravaya,  H. Burton,  K. Carter-Fenk,  D. Casanova,  
 Chun-Min Chang,  Yunqing Chen,  A. Chien,  K. D. Closser,  M. P. Coons,  
 S. Coriani,  S. Dasgupta,  A. L. Dempwolff,  M. Diedenhofen,  Hainam Do,  
 R. G. Edgar,  Po-Tung Fang,  S. Faraji,  S. Fatehi,  Qingguo Feng,  
 J. Fosso-Tande,  J. Gayvert,  Qinghui Ge,  A. Ghysels,  G. Gidofalvi,  
 J. Gomes,  J. Gonthier,  A. Gunina,  D. Hait,  M. W. D. Hanson-Heine,  
 P. H. P. Harbach,  A. W. Hauser,  M. F. Herbst,  J. E. Herr,  
 E. G. Hohenstein,  Z. C. Holden,  Kerwin Hui,  B. C. Huynh,  T.-C. Jagau,  
 Hyunjun Ji,  B. Kaduk,  K. Khistyaev,  Jaehoon Kim,  P. Klunzinger,  K. Koh,  
 D. Kosenkov,  L. Koulias,  T. Kowalczyk,  C. M. Krauter,  A. Kunitsa,  
 Ka Un Lao,  A. Laurent,  K. V. Lawler,  Joonho Lee,  D. Lefrancois,  
 S. Lehtola,  D. S. Levine,  Yi-Pei Li,  You-Sheng Lin,  Fenglai Liu,  
 Kuan-Yu Liu,  E. Livshits,  M. Loipersberger,  A. Luenser,  P. Manohar,  
 E. Mansoor,  S. F. Manzer,  Shan-Ping Mao,  Yuezhi Mao,  N. Mardirossian,  
 A. V. Marenich,  T. Markovich,  L. A. Martinez-Martinez,  S. A. Maurer,  
 N. J. Mayhall,  S. C. McKenzie,  J.-M. Mewes,  P. Morgante,  A. F. Morrison,  
 J. W. Mullinax,  K. Nanda,  T. S. Nguyen-Beck,  R. Olivares-Amaya,  
 J. A. Parkhill,  S. K. Paul,  Zheng Pei,  T. M. Perrine,  F. Plasser,  
 P. Pokhilko,  S. Prager,  A. Prociuk,  E. Ramos,  B. Rana,  D. R. Rehn,  
 F. Rob,  M. Scheurer,  M. Schneider,  N. Sergueev,  S. M. Sharada,  
 S. Sharma,  D. W. Small,  T. Stauch,  C. J. Stein,  T. Stein,  Yu-Chuan Su,  
 S. P. Veccham,  A. J. W. Thom,  A. Tkatchenko,  T. Tsuchimochi,  
 N. M. Tubman,  L. Vogt,  M. L. Vidal,  O. Vydrov,  M. A. Watson,  J. Wenzel,  
 M. de Wergifosse,  T. A. Wesolowski,  A. White,  J. Witte,  A. Yamada,  
 Jun Yang,  K. Yao,  S. Yeganeh,  S. R. Yost,  Zhi-Qiang You,  A. Zech,  
 Igor Ying Zhang,  Xing Zhang,  Yan Zhao,  Ying Zhu,  B. R. Brooks,  
 G. K. L. Chan,  C. J. Cramer,  M. S. Gordon,  W. J. Hehre,  A. Klamt,  
 M. W. Schmidt,  C. D. Sherrill,  D. G. Truhlar,  A. Aspuru-Guzik,  R. Baer,  
 A. T. Bell,  N. A. Besley,  Jeng-Da Chai,  A. E. DePrince, III,  
 R. A. DiStasio Jr.,  A. Dreuw,  B. D. Dunietz,  T. R. Furlani,  
 Chao-Ping Hsu,  Yousung Jung,  Jing Kong,  D. S. Lambrecht,  WanZhen Liang,  
 C. Ochsenfeld,  V. A. Rassolov,  L. V. Slipchenko,  J. E. Subotnik,  
 T. Van Voorhis,  J. M. Herbert,  A. I. Krylov,  P. M. W. Gill,  M. Head-Gordon

 Contributors to earlier versions of Q-Chem not listed above: 
 R. D. Adamson,  B. Austin,  J. Baker,  G. J. O. Beran,  K. Brandhorst,  
 S. T. Brown,  E. F. C. Byrd,  A. K. Chakraborty,  C.-L. Cheng,  
 Siu Hung Chien,  D. M. Chipman,  D. L. Crittenden,  H. Dachsel,  
 R. J. Doerksen,  A. D. Dutoi,  L. Fusti-Molnar,  W. A. Goddard III,  
 A. Golubeva-Zadorozhnaya,  S. R. Gwaltney,  G. Hawkins,  A. Heyden,  
 S. Hirata,  G. Kedziora,  F. J. Keil,  C. Kelley,  Jihan Kim,  R. A. King,  
 R. Z. Khaliullin,  P. P. Korambath,  W. Kurlancheek,  A. M. Lee,  M. S. Lee,  
 S. V. Levchenko,  Ching Yeh Lin,  D. Liotard,  R. C. Lochan,  I. Lotan,  
 P. E. Maslen,  N. Nair,  D. P. O'Neill,  D. Neuhauser,  E. Neuscamman,  
 C. M. Oana,  R. Olson,  B. Peters,  R. Peverati,  P. A. Pieniazek,  
 Y. M. Rhee,  J. Ritchie,  M. A. Rohrdanz,  E. Rosta,  N. J. Russ,  
 H. F. Schaefer III,  N. E. Schultz,  N. Shenvi,  A. C. Simmonett,  A. Sodt,  
 D. Stuck,  K. S. Thanthiriwatte,  V. Vanovschi,  Tao Wang,  A. Warshel,  
 C. F. Williams,  Q. Wu,  X. Xu,  W. Zhang

 Please cite Q-Chem as follows:
 Y. Shao et al., Mol. Phys. 113, 184-215 (2015)
 DOI: 10.1080/00268976.2014.952696

 Q-Chem 5.2.2 for Intel X86 EM64T Linux

 Parts of Q-Chem use Armadillo 9.800.1 (Horizon Scraper).
 http://arma.sourceforge.net/

 Q-Chem begins on Sun Apr 12 06:37:52 2020  

Host: cn0821
0

     Scratch files written to /tmp/ypli/6721342.srvc1/qchem179439//
Warning:  Did not find "$end" marker in "$molecule" section

Checking the input file for inconsistencies... 	...done.

--------------------------------------------------------------
User input:
--------------------------------------------------------------
$rem
   JOBTYPE  sp
   EXCHANGE   omegaB97X-D
   BASIS   6-311+G(2df,2pd)
   max_scf_cycles   250
   geom_opt_max_cycles   1500
   basis2 6-31G*
   scf_algorithm rca_diis
   SYM_IGNORE  TRUE
   print_input   true
   geom_opt_dmax   80
   pop_mulliken false
   XC_GRID 000075000302
$end

$molecule
0 1
C       1.2385961539     0.1215633850     0.2794213573
C       -0.0000001887     -0.1444877474     -0.6109200149
H       1.1881085739     -0.8115459110     0.8534356823
H       1.4969615538     0.9148003327     0.9761061564
H       2.0610066125     -0.1254052739     -0.3937636059
C       -1.2385965628     0.1215635330     0.2794212220
H       -0.0000010550     -0.8999018387     -1.3998876571
H       0.0000010850     0.8455659206     -1.0785461981
H       -1.1881089928     -0.8115458919     0.8534353164
H       -2.0610066965     -0.1254062242     -0.3937637029
H       -1.4969605439     0.9148003819     0.9761064635
--------------------------------------------------------------
 ----------------------------------------------------------------
             Standard Nuclear Orientation (Angstroms)
    I     Atom           X                Y                Z
 ----------------------------------------------------------------
    1      C       1.2385961539     0.1215633850     0.2794213573
    2      C      -0.0000001887    -0.1444877474    -0.6109200149
    3      H       1.1881085739    -0.8115459110     0.8534356823
    4      H       1.4969615538     0.9148003327     0.9761061564
    5      H       2.0610066125    -0.1254052739    -0.3937636059
    6      C      -1.2385965628     0.1215635330     0.2794212220
    7      H      -0.0000010550    -0.8999018387    -1.3998876571
    8      H       0.0000010850     0.8455659206    -1.0785461981
    9      H      -1.1881089928    -0.8115458919     0.8534353164
   10      H      -2.0610066965    -0.1254062242    -0.3937637029
   11      H      -1.4969605439     0.9148003819     0.9761064635
 ----------------------------------------------------------------
 Nuclear Repulsion Energy =          82.73840284 hartrees
 There are       13 alpha and       13 beta electrons
 Requested basis set is 6-311+G(2df,2pd)
 There are 72 shells and 214 basis functions

 Total QAlloc Memory Limit   2000 MB
 Mega-Array Size       188 MB
 MEM_STATIC part       192 MB

                       Distance Matrix (Angstroms)
             C (  1)   C (  2)   H (  3)   H (  4)   H (  5)   C (  6)
   C (  2)  1.548422
   H (  3)  1.096692  2.000227
   H (  4)  1.086898  2.425209  1.758041
   H (  5)  1.091114  2.072503  1.669804  1.810171
   C (  6)  2.477193  1.548422  2.662533  2.932213  3.376619
   H (  7)  2.323272  1.092301  2.548897  3.343559  2.420720  2.323271
   H (  8)  1.975443  1.094934  2.808945  2.543085  2.378961  1.975444
   H (  9)  2.662533  2.000226  2.376218  3.194515  3.547259  1.096692
   H ( 10)  3.376618  2.072503  3.547259  3.951925  4.122013  1.091114
   H ( 11)  2.932212  2.425208  3.194513  2.993922  3.951924  1.086898
             H (  7)   H (  8)   H (  9)   H ( 10)
   H (  8)  1.774801
   H (  9)  2.548896  2.808946
   H ( 10)  2.420717  2.378963  1.669803
   H ( 11)  3.343558  2.543086  1.758041  1.810172
 
 A cutoff of  1.0D-09 yielded   2529 shell pairs
 There are     22541 function pairs (     27728 Cartesian)
 Smallest overlap matrix eigenvalue = 1.03E-04

 Scale SEOQF with 1.000000e-01/1.000000e-01/1.000000e-01

 Standard Electronic Orientation quadrupole field applied
 Nucleus-field energy     =     0.0000000005 hartrees
 Requested basis set is 6-31G(d)
 There are 28 shells and 58 basis functions
 A cutoff of  1.0D-09 yielded    402 shell pairs
 There are      1773 function pairs (      1968 Cartesian)
 Smallest overlap matrix eigenvalue = 6.02E-03
 Guess from superposition of atomic densities
 Warning:  Energy on first SCF cycle will be non-variational
 SAD guess density has 26.000000 electrons
 Long-range K will be added via erf
 Coulomb attenuation parameter = 0.2 bohr**(-1)
 A restricted hybrid HF-DFT SCF calculation will be
 performed using Relaxed Constraint Minimization + Pulay DIIS
 Exchange:     0.2220 Hartree-Fock + 1.0000 wB97X-D + LR-HF
 Correlation:  1.0000 wB97X-D
 Using Euler-Maclaurin-Lebedev (75,302) quadrature formula
 Dispersion:   Grimme D
 SCF converges when DIIS error is below 1.0E-04
 using 3 threads for integral computing
 -------------------------------------------------------
 OpenMP Integral computing Module                
 Release: version 1.0, May 2013, Q-Chem Inc. Pittsburgh 
 -------------------------------------------------------
 using 3 threads for integral computing
 -------------------------------------------------------
 OpenMP Integral computing Module                
 Release: version 1.0, May 2013, Q-Chem Inc. Pittsburgh 
 -------------------------------------------------------
 ---------------------------------------
  Cycle       Energy         DIIS Error
 ---------------------------------------
    1    -119.6110327196      1.00E-01
    2    -118.9963199518      9.06E-03
    3    -119.0176085029      2.55E-03
    4    -119.0316631393      1.77E-03
    5    -119.0324237703      2.71E-04 Done RCA. Switching to DIIS
    6    -119.0329906688      2.01E-04
    7    -119.0330081351      7.62E-06 Convergence criterion met
 ---------------------------------------
 SCF time:  CPU 33.00 s  wall 11.44 s
 SCF   energy in the small basis set = -119.03300814
 Total energy in the small basis set = -119.03300814
 ----------------------------------------------------
  Cycle       Energy    
 ----------------------------------------------------
    1     -16.5227562492     -1.65E+01
 Long-range K will be added via erf
 Coulomb attenuation parameter = 0.2 bohr**(-1)
 A restricted hybrid HF-DFT SCF calculation will be
 performed using Relaxed Constraint Minimization + Pulay DIIS
 Exchange:     0.2220 Hartree-Fock + 1.0000 wB97X-D + LR-HF
 Correlation:  1.0000 wB97X-D
 Using Euler-Maclaurin-Lebedev (75,302) quadrature formula
 Dispersion:   Grimme D
 SCF converges when DIIS error is below 1.0E-05
 Basis2 calculation detected. Using small basis as guess for larger.
 SCFMinFind is unable to tell whether the solution found is close.
 Resetting ReadMinima to 0 and attempting to follow guess.
 SCFMinFind following SCF Guess.
 using 3 threads for integral computing
 -------------------------------------------------------
 OpenMP Integral computing Module                
 Release: version 1.0, May 2013, Q-Chem Inc. Pittsburgh 
 -------------------------------------------------------
 using 3 threads for integral computing
 -------------------------------------------------------
 OpenMP Integral computing Module                
 Release: version 1.0, May 2013, Q-Chem Inc. Pittsburgh 
 -------------------------------------------------------
 ---------------------------------------
  Cycle       Energy         DIIS Error
 ---------------------------------------
    1    -119.0539025479      4.22E-03
    2    -119.0760669071      6.38E-04 Done RCA. Switching to DIIS
    3    -119.0769752823      4.56E-04
    4    -119.0781222158      4.61E-05
    5    -119.0781380240      8.36E-06 Convergence criterion met
 ---------------------------------------
 SCF time:  CPU 85.97 s  wall 29.03 s
 SCF   energy in the final basis set = -119.07813802
 Total energy in the final basis set = -119.07813802
 
 --------------------------------------------------------------
 
                    Orbital Energies (a.u.)
 --------------------------------------------------------------
 
 Alpha MOs
 -- Occupied --
-10.2835 -10.2657 -10.2657  -0.8850  -0.7770  -0.6810  -0.5475  -0.5199
 -0.5078  -0.4644  -0.4431  -0.3846  -0.3593
 -- Virtual --
  0.0667   0.0852   0.0858   0.0981   0.1226   0.1261   0.1334   0.1339
  0.1397   0.1681   0.1726   0.1890   0.2119   0.2350   0.2399   0.2725
  0.2856   0.2927   0.3023   0.3118   0.3336   0.3363   0.4502   0.4669
  0.4735   0.4948   0.5152   0.5225   0.5402   0.5747   0.5984   0.5985
  0.6105   0.6228   0.6475   0.6550   0.6604   0.6943   0.6976   0.7178
  0.7258   0.7409   0.8012   0.8382   0.8734   0.8986   0.9344   0.9426
  1.0012   1.0244   1.0795   1.1117   1.1281   1.1419   1.1642   1.2189
  1.2306   1.2353   1.2961   1.3027   1.3122   1.3359   1.3587   1.3674
  1.3845   1.4025   1.4352   1.4445   1.4524   1.4542   1.4803   1.5151
  1.5470   1.5626   1.5837   1.5960   1.6156   1.6563   1.6910   1.7331
  1.7475   2.3556   2.4086   2.4984   2.5306   2.5345   2.5562   2.5563
  2.6383   2.6442   2.7910   2.8221   2.8650   2.8709   2.9156   2.9295
  2.9720   2.9932   3.0234   3.0325   3.0821   3.0834   3.0938   3.1103
  3.1518   3.1579   3.1719   3.1952   3.2266   3.2791   3.2980   3.3028
  3.3347   3.3561   3.3825   3.3847   3.4052   3.4102   3.4437   3.4538
  3.4619   3.4740   3.4943   3.4978   3.5257   3.5726   3.5920   3.6178
  3.6415   3.6462   3.6654   3.6774   3.6930   3.7045   3.7301   3.7572
  3.8502   3.8941   3.9387   3.9474   3.9734   4.0031   4.0410   4.0556
  4.0614   4.1387   4.1456   4.1808   4.1831   4.2041   4.2167   4.2259
  4.2550   4.2862   4.3213   4.3736   4.3827   4.4091   4.4420   4.4677
  4.4779   4.5188   4.5689   4.6620   4.7337   4.7666   4.8306   4.8591
  4.9060   4.9567   4.9662   4.9929   5.0128   5.0379   5.0583   5.1647
  5.1761   5.1765   5.1869   5.2296   5.2526   5.2955   5.3510   5.4290
  5.4483   5.4842   5.4860   5.5193   5.5498   5.6551   5.6774   5.8158
  6.0217   6.3968   6.4190   6.4234   6.4751   6.4850  25.1471  25.3944
 25.4285
 --------------------------------------------------------------
 
 -----------------------------------------------------------------
                    Cartesian Multipole Moments
 -----------------------------------------------------------------
    Charge (ESU x 10^10)
                -0.0000
    Dipole Moment (Debye)
         X       0.0000      Y      -0.0329      Z      -0.1562
       Tot       0.1597
    Quadrupole Moments (Debye-Ang)
        XX     -22.9542     XY       0.0000     YY     -21.2896
        XZ       0.0000     YZ       1.6224     ZZ     -21.5802
    Octopole Moments (Debye-Ang^2)
       XXX       0.0000    XXY       0.8228    XYY       0.0000
       YYY      -1.0465    XXZ      -0.4386    XYZ      -0.0000
       YYZ       0.1977    XZZ       0.0000    YZZ      -0.5944
       ZZZ      -0.9825
    Hexadecapole Moments (Debye-Ang^3)
      XXXX    -205.5280   XXXY       0.0000   XXYY     -40.8353
      XYYY      -0.0000   YYYY     -45.4595   XXXZ       0.0000
      XXYZ       2.8603   XYYZ      -0.0000   YYYZ      -2.2923
      XXZZ     -43.6760   XYZZ       0.0000   YYZZ     -17.3611
      XZZZ      -0.0000   YZZZ       0.9276   ZZZZ     -73.5289
 -----------------------------------------------------------------
Archival summary:
1\1\cn0821\SP\ProcedureUnspecified\BasisUnspecified\38\r0852400\SunApr1206:38:362020SunApr1206:38:362020\0\\#,ProcedureUnspecified,BasisUnspecified,\\0,1\C\H,1,1.0923\H,1,1.09493,2,108.473\C,1,1.54842,2,122.286,3,108.88,0\H,4,1.0869,1,133.165,2,-167.629,0\H,4,1.09111,1,102.08,2,-30.271,0\H,4,1.09669,1,96.7733,2,70.996,0\C,1,1.54842,2,122.286,3,-108.88,0\H,8,1.0869,1,133.166,2,167.629,0\H,8,1.09111,1,102.08,2,30.2711,0\H,8,1.09669,1,96.7733,2,-70.9959,0\\\@

 Total job time:  44.89s(wall), 124.31s(cpu) 
 Sun Apr 12 06:38:36 2020

        *************************************************************
        *                                                           *
        *  Thank you very much for using Q-Chem.  Have a nice day.  *
        *                                                           *
        *************************************************************


