                  Welcome to Q-Chem
     A Quantum Leap Into The Future Of Chemistry


 Q-Chem 5.2 (devel), Q-Chem, Inc., Pleasanton, CA (2019)

 Yihan Shao,  Zhengting Gan,  E. Epifanovsky,  A. T. B. Gilbert,  M. Wormit,  
 J. Kussmann,  A. W. Lange,  A. Behn,  Jia Deng,  Xintian Feng,  D. Ghosh,  
 M. Goldey,  P. R. Horn,  L. D. Jacobson,  I. Kaliman,  T. Kus,  A. Landau,  
 Jie Liu,  E. I. Proynov,  R. M. Richard,  R. P. Steele,  E. J. Sundstrom,  
 H. L. Woodcock III,  P. M. Zimmerman,  D. Zuev,  B. Alam,  B. Albrecht,  
 E. Alguire,  S. A. Baeppler,  D. Barton,  Z. Benda,  Y. A. Bernard,  
 E. J. Berquist,  K. B. Bravaya,  H. Burton,  K. Carter-Fenk,  D. Casanova,  
 Chun-Min Chang,  Yunqing Chen,  A. Chien,  K. D. Closser,  M. P. Coons,  
 S. Coriani,  S. Dasgupta,  A. L. Dempwolff,  M. Diedenhofen,  Hainam Do,  
 R. G. Edgar,  Po-Tung Fang,  S. Faraji,  S. Fatehi,  Qingguo Feng,  
 J. Fosso-Tande,  J. Gayvert,  Qinghui Ge,  A. Ghysels,  G. Gidofalvi,  
 J. Gomes,  J. Gonthier,  A. Gunina,  D. Hait,  M. W. D. Hanson-Heine,  
 P. H. P. Harbach,  A. W. Hauser,  M. F. Herbst,  J. E. Herr,  
 E. G. Hohenstein,  Z. C. Holden,  Kerwin Hui,  B. C. Huynh,  T.-C. Jagau,  
 Hyunjun Ji,  B. Kaduk,  K. Khistyaev,  Jaehoon Kim,  P. Klunzinger,  K. Koh,  
 D. Kosenkov,  L. Koulias,  T. Kowalczyk,  C. M. Krauter,  A. Kunitsa,  
 Ka Un Lao,  A. Laurent,  K. V. Lawler,  Joonho Lee,  D. Lefrancois,  
 S. Lehtola,  D. S. Levine,  Yi-Pei Li,  You-Sheng Lin,  Fenglai Liu,  
 Kuan-Yu Liu,  E. Livshits,  M. Loipersberger,  A. Luenser,  P. Manohar,  
 E. Mansoor,  S. F. Manzer,  Shan-Ping Mao,  Yuezhi Mao,  N. Mardirossian,  
 A. V. Marenich,  T. Markovich,  L. A. Martinez-Martinez,  S. A. Maurer,  
 N. J. Mayhall,  S. C. McKenzie,  J.-M. Mewes,  P. Morgante,  A. F. Morrison,  
 J. W. Mullinax,  K. Nanda,  T. S. Nguyen-Beck,  R. Olivares-Amaya,  
 J. A. Parkhill,  S. K. Paul,  Zheng Pei,  T. M. Perrine,  F. Plasser,  
 P. Pokhilko,  S. Prager,  A. Prociuk,  E. Ramos,  B. Rana,  D. R. Rehn,  
 F. Rob,  M. Scheurer,  M. Schneider,  N. Sergueev,  S. M. Sharada,  
 S. Sharma,  D. W. Small,  T. Stauch,  C. J. Stein,  T. Stein,  Yu-Chuan Su,  
 S. P. Veccham,  A. J. W. Thom,  A. Tkatchenko,  T. Tsuchimochi,  
 N. M. Tubman,  L. Vogt,  M. L. Vidal,  O. Vydrov,  M. A. Watson,  J. Wenzel,  
 M. de Wergifosse,  T. A. Wesolowski,  A. White,  J. Witte,  A. Yamada,  
 Jun Yang,  K. Yao,  S. Yeganeh,  S. R. Yost,  Zhi-Qiang You,  A. Zech,  
 Igor Ying Zhang,  Xing Zhang,  Yan Zhao,  Ying Zhu,  B. R. Brooks,  
 G. K. L. Chan,  C. J. Cramer,  M. S. Gordon,  W. J. Hehre,  A. Klamt,  
 M. W. Schmidt,  C. D. Sherrill,  D. G. Truhlar,  A. Aspuru-Guzik,  R. Baer,  
 A. T. Bell,  N. A. Besley,  Jeng-Da Chai,  A. E. DePrince, III,  
 R. A. DiStasio Jr.,  A. Dreuw,  B. D. Dunietz,  T. R. Furlani,  
 Chao-Ping Hsu,  Yousung Jung,  Jing Kong,  D. S. Lambrecht,  WanZhen Liang,  
 C. Ochsenfeld,  V. A. Rassolov,  L. V. Slipchenko,  J. E. Subotnik,  
 T. Van Voorhis,  J. M. Herbert,  A. I. Krylov,  P. M. W. Gill,  M. Head-Gordon

 Contributors to earlier versions of Q-Chem not listed above: 
 R. D. Adamson,  B. Austin,  J. Baker,  G. J. O. Beran,  K. Brandhorst,  
 S. T. Brown,  E. F. C. Byrd,  A. K. Chakraborty,  C.-L. Cheng,  
 Siu Hung Chien,  D. M. Chipman,  D. L. Crittenden,  H. Dachsel,  
 R. J. Doerksen,  A. D. Dutoi,  L. Fusti-Molnar,  W. A. Goddard III,  
 A. Golubeva-Zadorozhnaya,  S. R. Gwaltney,  G. Hawkins,  A. Heyden,  
 S. Hirata,  G. Kedziora,  F. J. Keil,  C. Kelley,  Jihan Kim,  R. A. King,  
 R. Z. Khaliullin,  P. P. Korambath,  W. Kurlancheek,  A. M. Lee,  M. S. Lee,  
 S. V. Levchenko,  Ching Yeh Lin,  D. Liotard,  R. C. Lochan,  I. Lotan,  
 P. E. Maslen,  N. Nair,  D. P. O'Neill,  D. Neuhauser,  E. Neuscamman,  
 C. M. Oana,  R. Olson,  B. Peters,  R. Peverati,  P. A. Pieniazek,  
 Y. M. Rhee,  J. Ritchie,  M. A. Rohrdanz,  E. Rosta,  N. J. Russ,  
 H. F. Schaefer III,  N. E. Schultz,  N. Shenvi,  A. C. Simmonett,  A. Sodt,  
 D. Stuck,  K. S. Thanthiriwatte,  V. Vanovschi,  Tao Wang,  A. Warshel,  
 C. F. Williams,  Q. Wu,  X. Xu,  W. Zhang

 Please cite Q-Chem as follows:
 Y. Shao et al., Mol. Phys. 113, 184-215 (2015)
 DOI: 10.1080/00268976.2014.952696

 Q-Chem 5.2.2 for Intel X86 EM64T Linux

 Parts of Q-Chem use Armadillo 9.800.1 (Horizon Scraper).
 http://arma.sourceforge.net/

 Q-Chem begins on Sun Apr 12 06:54:15 2020  

Host: cn0821
0

     Scratch files written to /tmp/ypli/6721342.srvc1/qchem182459//
Warning:  Did not find "$end" marker in "$molecule" section

Checking the input file for inconsistencies... 	...done.

--------------------------------------------------------------
User input:
--------------------------------------------------------------
$rem
   JOBTYPE  sp
   EXCHANGE   omegaB97X-D
   BASIS   6-311+G(2df,2pd)
   max_scf_cycles   250
   geom_opt_max_cycles   1500
   basis2 6-31G*
   scf_algorithm rca_diis
   SYM_IGNORE  TRUE
   print_input   true
   geom_opt_dmax   80
   pop_mulliken false
   XC_GRID 000075000302
$end

$molecule
0 1
C       1.2195442385     0.0032434407     0.1861878276
C       -0.1503712867     0.0002692710     -0.5742884504
H       1.3288562611     -0.8361738856     0.8825317579
H       1.3162903425     0.8391551411     0.8881711982
H       2.1655884526     -0.0047922540     -0.3607567965
C       -1.3247640256     -0.0027844231     0.3284276137
H       0.0993465156     -0.8437729330     -1.2215835173
H       0.1127593775     0.8409895192     -1.2205924449
H       -1.3045294161     -0.9211111171     0.9108259707
H       -2.1461162833     0.0067555336     -0.3852473495
H       -1.3166042367     0.9182223731     0.9073692096
--------------------------------------------------------------
 ----------------------------------------------------------------
             Standard Nuclear Orientation (Angstroms)
    I     Atom           X                Y                Z
 ----------------------------------------------------------------
    1      C       1.2195442385     0.0032434407     0.1861878276
    2      C      -0.1503712867     0.0002692710    -0.5742884504
    3      H       1.3288562611    -0.8361738856     0.8825317579
    4      H       1.3162903425     0.8391551411     0.8881711982
    5      H       2.1655884526    -0.0047922540    -0.3607567965
    6      C      -1.3247640256    -0.0027844231     0.3284276137
    7      H       0.0993465156    -0.8437729330    -1.2215835173
    8      H       0.1127593775     0.8409895192    -1.2205924449
    9      H      -1.3045294161    -0.9211111171     0.9108259707
   10      H      -2.1461162833     0.0067555336    -0.3852473495
   11      H      -1.3166042367     0.9182223731     0.9073692096
 ----------------------------------------------------------------
 Nuclear Repulsion Energy =          82.86336853 hartrees
 There are       13 alpha and       13 beta electrons
 Requested basis set is 6-311+G(2df,2pd)
 There are 72 shells and 214 basis functions

 Total QAlloc Memory Limit   2000 MB
 Mega-Array Size       188 MB
 MEM_STATIC part       192 MB

                       Distance Matrix (Angstroms)
             C (  1)   C (  2)   H (  3)   H (  4)   H (  5)   C (  6)
   C (  2)  1.566844
   H (  3)  1.096114  2.238320
   H (  4)  1.095851  2.234640  1.675386
   H (  5)  1.092800  2.325788  1.713792  1.730137
   C (  6)  2.548288  1.481251  2.836066  2.827957  3.557744
   H (  7)  1.988492  1.092592  2.437017  2.960450  2.390453  2.266691
   H (  8)  1.976315  1.092592  2.952101  2.428039  2.380918  2.275498
   H (  9)  2.783968  2.094418  2.634907  3.157174  3.807661  1.087622
   H ( 10)  3.413828  2.004689  3.793841  3.781897  4.311790  1.088137
   H ( 11)  2.790939  2.097152  3.174427  2.634151  3.819132  1.087885
             H (  7)   H (  8)   H (  9)   H ( 10)
   H (  8)  1.684816
   H (  9)  2.554216  3.107515
   H ( 10)  2.542629  2.548778  1.802501
   H ( 11)  3.105154  2.564618  1.839376  1.785979
 
 A cutoff of  1.0D-09 yielded   2535 shell pairs
 There are     22595 function pairs (     27779 Cartesian)
 Smallest overlap matrix eigenvalue = 9.52E-05

 Scale SEOQF with 1.000000e-01/1.000000e-01/1.000000e-01

 Standard Electronic Orientation quadrupole field applied
 Nucleus-field energy     =     0.0000000006 hartrees
 Requested basis set is 6-31G(d)
 There are 28 shells and 58 basis functions
 A cutoff of  1.0D-09 yielded    402 shell pairs
 There are      1773 function pairs (      1968 Cartesian)
 Smallest overlap matrix eigenvalue = 6.83E-03
 Guess from superposition of atomic densities
 Warning:  Energy on first SCF cycle will be non-variational
 SAD guess density has 26.000000 electrons
 Long-range K will be added via erf
 Coulomb attenuation parameter = 0.2 bohr**(-1)
 A restricted hybrid HF-DFT SCF calculation will be
 performed using Relaxed Constraint Minimization + Pulay DIIS
 Exchange:     0.2220 Hartree-Fock + 1.0000 wB97X-D + LR-HF
 Correlation:  1.0000 wB97X-D
 Using Euler-Maclaurin-Lebedev (75,302) quadrature formula
 Dispersion:   Grimme D
 SCF converges when DIIS error is below 1.0E-04
 using 3 threads for integral computing
 -------------------------------------------------------
 OpenMP Integral computing Module                
 Release: version 1.0, May 2013, Q-Chem Inc. Pittsburgh 
 -------------------------------------------------------
 using 3 threads for integral computing
 -------------------------------------------------------
 OpenMP Integral computing Module                
 Release: version 1.0, May 2013, Q-Chem Inc. Pittsburgh 
 -------------------------------------------------------
 ---------------------------------------
  Cycle       Energy         DIIS Error
 ---------------------------------------
    1    -119.6491904456      1.01E-01
    2    -119.0382623326      9.02E-03
    3    -119.0594994687      2.51E-03
    4    -119.0734167506      1.73E-03
    5    -119.0741526146      2.76E-04 Done RCA. Switching to DIIS
    6    -119.0746920659      2.04E-04
    7    -119.0747101637      5.68E-06 Convergence criterion met
 ---------------------------------------
 SCF time:  CPU 32.80 s  wall 11.29 s
 SCF   energy in the small basis set = -119.07471016
 Total energy in the small basis set = -119.07471016
 ----------------------------------------------------
  Cycle       Energy    
 ----------------------------------------------------
    1     -16.5412043286     -1.65E+01
 Long-range K will be added via erf
 Coulomb attenuation parameter = 0.2 bohr**(-1)
 A restricted hybrid HF-DFT SCF calculation will be
 performed using Relaxed Constraint Minimization + Pulay DIIS
 Exchange:     0.2220 Hartree-Fock + 1.0000 wB97X-D + LR-HF
 Correlation:  1.0000 wB97X-D
 Using Euler-Maclaurin-Lebedev (75,302) quadrature formula
 Dispersion:   Grimme D
 SCF converges when DIIS error is below 1.0E-05
 Basis2 calculation detected. Using small basis as guess for larger.
 SCFMinFind is unable to tell whether the solution found is close.
 Resetting ReadMinima to 0 and attempting to follow guess.
 SCFMinFind following SCF Guess.
 using 3 threads for integral computing
 -------------------------------------------------------
 OpenMP Integral computing Module                
 Release: version 1.0, May 2013, Q-Chem Inc. Pittsburgh 
 -------------------------------------------------------
 using 3 threads for integral computing
 -------------------------------------------------------
 OpenMP Integral computing Module                
 Release: version 1.0, May 2013, Q-Chem Inc. Pittsburgh 
 -------------------------------------------------------
 ---------------------------------------
  Cycle       Energy         DIIS Error
 ---------------------------------------
    1    -119.0947673372      4.21E-03
    2    -119.1168258056      6.16E-04 Done RCA. Switching to DIIS
    3    -119.1176927270      4.37E-04
    4    -119.1187390724      4.53E-05
    5    -119.1187540270      9.65E-06 Convergence criterion met
 ---------------------------------------
 SCF time:  CPU 85.73 s  wall 28.95 s
 SCF   energy in the final basis set = -119.11875403
 Total energy in the final basis set = -119.11875403
 
 --------------------------------------------------------------
 
                    Orbital Energies (a.u.)
 --------------------------------------------------------------
 
 Alpha MOs
 -- Occupied --
-10.2753 -10.2714 -10.2617  -0.8864  -0.7819  -0.6807  -0.5477  -0.5250
 -0.4928  -0.4655  -0.4299  -0.3974  -0.3939
 -- Virtual --
  0.0683   0.0854   0.0905   0.0989   0.1240   0.1283   0.1322   0.1426
  0.1458   0.1636   0.1784   0.1917   0.2304   0.2349   0.2407   0.2731
  0.2767   0.2806   0.2980   0.3143   0.3289   0.3444   0.4564   0.4606
  0.4739   0.5136   0.5143   0.5262   0.5359   0.5740   0.5800   0.5942
  0.6243   0.6273   0.6368   0.6483   0.6507   0.6577   0.7137   0.7192
  0.7264   0.7671   0.8220   0.8646   0.8738   0.8765   0.8854   0.9619
  1.0059   1.0421   1.0456   1.1042   1.1381   1.1717   1.1901   1.2075
  1.2356   1.2409   1.2792   1.2898   1.3099   1.3129   1.3282   1.3708
  1.3864   1.3941   1.4160   1.4403   1.4534   1.4779   1.4852   1.4921
  1.5385   1.5820   1.6035   1.6078   1.6245   1.6370   1.6414   1.6990
  1.7370   2.3971   2.4508   2.4936   2.5027   2.5634   2.5935   2.6085
  2.6369   2.7144   2.7930   2.8030   2.8319   2.8780   2.8981   2.9266
  2.9591   2.9682   2.9806   3.0037   3.0368   3.0634   3.1025   3.1202
  3.1394   3.1428   3.1532   3.2180   3.2393   3.2436   3.2958   3.3076
  3.3241   3.3319   3.3375   3.3621   3.4008   3.4137   3.4526   3.4607
  3.4632   3.4981   3.5063   3.5381   3.5576   3.5595   3.5889   3.6073
  3.6211   3.6276   3.6628   3.6979   3.7214   3.7722   3.8044   3.8587
  3.8821   3.8923   3.9005   3.9280   3.9686   3.9877   4.0043   4.0484
  4.0631   4.1032   4.1168   4.1241   4.1519   4.1571   4.1771   4.2202
  4.2529   4.2944   4.3012   4.3785   4.4077   4.4181   4.4455   4.4795
  4.4899   4.5533   4.5875   4.6813   4.6981   4.7701   4.8429   4.8696
  4.8809   4.9271   4.9548   4.9593   5.0266   5.0290   5.0666   5.1080
  5.1230   5.1890   5.2207   5.2727   5.3142   5.3476   5.3551   5.3886
  5.4202   5.5138   5.5329   5.5674   5.6052   5.6271   5.7070   5.7543
  6.0317   6.3272   6.3832   6.4234   6.4390   6.5528  25.1998  25.4054
 25.4777
 --------------------------------------------------------------
 
 -----------------------------------------------------------------
                    Cartesian Multipole Moments
 -----------------------------------------------------------------
    Charge (ESU x 10^10)
                 0.0000
    Dipole Moment (Debye)
         X      -0.0379      Y      -0.0020      Z      -0.0585
       Tot       0.0697
    Quadrupole Moments (Debye-Ang)
        XX     -22.1396     XY      -0.0392     YY     -21.5221
        XZ      -0.3101     YZ       0.0032     ZZ     -21.9653
    Octopole Moments (Debye-Ang^2)
       XXX       4.4107    XXY       0.0040    XYY       0.4258
       YYY      -0.0245    XXZ      -1.6998    XYZ       0.0130
       YYZ       0.6732    XZZ       1.3363    YZZ      -0.0105
       ZZZ      -0.2579
    Hexadecapole Moments (Debye-Ang^3)
      XXXX    -205.3094   XXXY      -0.4108   XXYY     -42.4869
      XYYY      -0.0820   YYYY     -44.0143   XXXZ       3.8225
      XXYZ      -0.0021   XYYZ      -0.3266   YYYZ       0.0082
      XXZZ     -45.4305   XYZZ       0.0145   YYZZ     -17.2802
      XZZZ       1.4008   YZZZ       0.0170   ZZZZ     -72.0969
 -----------------------------------------------------------------
Archival summary:
1\1\cn0821\SP\ProcedureUnspecified\BasisUnspecified\38\r0852400\SunApr1206:55:002020SunApr1206:55:002020\0\\#,ProcedureUnspecified,BasisUnspecified,\\0,1\C\H,1,1.09259\H,1,1.09259,2,100.891\C,1,1.48125,2,122.729,3,142.477,0\H,4,1.08762,1,108.26,2,50.4502,0\H,4,1.08788,1,108.459,2,176.408,0\H,4,1.08814,1,101.463,2,-67.4089,0\C,1,1.56684,2,95.1165,3,-95.3932,0\H,8,1.0928,1,120.928,2,50.2882,0\H,8,1.09585,1,112.926,2,175.01,0\H,8,1.09611,1,113.208,2,-72.6378,0\\\@

 Total job time:  44.53s(wall), 123.76s(cpu) 
 Sun Apr 12 06:55:00 2020

        *************************************************************
        *                                                           *
        *  Thank you very much for using Q-Chem.  Have a nice day.  *
        *                                                           *
        *************************************************************


