                  Welcome to Q-Chem
     A Quantum Leap Into The Future Of Chemistry


 Q-Chem 5.2 (devel), Q-Chem, Inc., Pleasanton, CA (2019)

 Yihan Shao,  Zhengting Gan,  E. Epifanovsky,  A. T. B. Gilbert,  M. Wormit,  
 J. Kussmann,  A. W. Lange,  A. Behn,  Jia Deng,  Xintian Feng,  D. Ghosh,  
 M. Goldey,  P. R. Horn,  L. D. Jacobson,  I. Kaliman,  T. Kus,  A. Landau,  
 Jie Liu,  E. I. Proynov,  R. M. Richard,  R. P. Steele,  E. J. Sundstrom,  
 H. L. Woodcock III,  P. M. Zimmerman,  D. Zuev,  B. Alam,  B. Albrecht,  
 E. Alguire,  S. A. Baeppler,  D. Barton,  Z. Benda,  Y. A. Bernard,  
 E. J. Berquist,  K. B. Bravaya,  H. Burton,  K. Carter-Fenk,  D. Casanova,  
 Chun-Min Chang,  Yunqing Chen,  A. Chien,  K. D. Closser,  M. P. Coons,  
 S. Coriani,  S. Dasgupta,  A. L. Dempwolff,  M. Diedenhofen,  Hainam Do,  
 R. G. Edgar,  Po-Tung Fang,  S. Faraji,  S. Fatehi,  Qingguo Feng,  
 J. Fosso-Tande,  J. Gayvert,  Qinghui Ge,  A. Ghysels,  G. Gidofalvi,  
 J. Gomes,  J. Gonthier,  A. Gunina,  D. Hait,  M. W. D. Hanson-Heine,  
 P. H. P. Harbach,  A. W. Hauser,  M. F. Herbst,  J. E. Herr,  
 E. G. Hohenstein,  Z. C. Holden,  Kerwin Hui,  B. C. Huynh,  T.-C. Jagau,  
 Hyunjun Ji,  B. Kaduk,  K. Khistyaev,  Jaehoon Kim,  P. Klunzinger,  K. Koh,  
 D. Kosenkov,  L. Koulias,  T. Kowalczyk,  C. M. Krauter,  A. Kunitsa,  
 Ka Un Lao,  A. Laurent,  K. V. Lawler,  Joonho Lee,  D. Lefrancois,  
 S. Lehtola,  D. S. Levine,  Yi-Pei Li,  You-Sheng Lin,  Fenglai Liu,  
 Kuan-Yu Liu,  E. Livshits,  M. Loipersberger,  A. Luenser,  P. Manohar,  
 E. Mansoor,  S. F. Manzer,  Shan-Ping Mao,  Yuezhi Mao,  N. Mardirossian,  
 A. V. Marenich,  T. Markovich,  L. A. Martinez-Martinez,  S. A. Maurer,  
 N. J. Mayhall,  S. C. McKenzie,  J.-M. Mewes,  P. Morgante,  A. F. Morrison,  
 J. W. Mullinax,  K. Nanda,  T. S. Nguyen-Beck,  R. Olivares-Amaya,  
 J. A. Parkhill,  S. K. Paul,  Zheng Pei,  T. M. Perrine,  F. Plasser,  
 P. Pokhilko,  S. Prager,  A. Prociuk,  E. Ramos,  B. Rana,  D. R. Rehn,  
 F. Rob,  M. Scheurer,  M. Schneider,  N. Sergueev,  S. M. Sharada,  
 S. Sharma,  D. W. Small,  T. Stauch,  C. J. Stein,  T. Stein,  Yu-Chuan Su,  
 S. P. Veccham,  A. J. W. Thom,  A. Tkatchenko,  T. Tsuchimochi,  
 N. M. Tubman,  L. Vogt,  M. L. Vidal,  O. Vydrov,  M. A. Watson,  J. Wenzel,  
 M. de Wergifosse,  T. A. Wesolowski,  A. White,  J. Witte,  A. Yamada,  
 Jun Yang,  K. Yao,  S. Yeganeh,  S. R. Yost,  Zhi-Qiang You,  A. Zech,  
 Igor Ying Zhang,  Xing Zhang,  Yan Zhao,  Ying Zhu,  B. R. Brooks,  
 G. K. L. Chan,  C. J. Cramer,  M. S. Gordon,  W. J. Hehre,  A. Klamt,  
 M. W. Schmidt,  C. D. Sherrill,  D. G. Truhlar,  A. Aspuru-Guzik,  R. Baer,  
 A. T. Bell,  N. A. Besley,  Jeng-Da Chai,  A. E. DePrince, III,  
 R. A. DiStasio Jr.,  A. Dreuw,  B. D. Dunietz,  T. R. Furlani,  
 Chao-Ping Hsu,  Yousung Jung,  Jing Kong,  D. S. Lambrecht,  WanZhen Liang,  
 C. Ochsenfeld,  V. A. Rassolov,  L. V. Slipchenko,  J. E. Subotnik,  
 T. Van Voorhis,  J. M. Herbert,  A. I. Krylov,  P. M. W. Gill,  M. Head-Gordon

 Contributors to earlier versions of Q-Chem not listed above: 
 R. D. Adamson,  B. Austin,  J. Baker,  G. J. O. Beran,  K. Brandhorst,  
 S. T. Brown,  E. F. C. Byrd,  A. K. Chakraborty,  C.-L. Cheng,  
 Siu Hung Chien,  D. M. Chipman,  D. L. Crittenden,  H. Dachsel,  
 R. J. Doerksen,  A. D. Dutoi,  L. Fusti-Molnar,  W. A. Goddard III,  
 A. Golubeva-Zadorozhnaya,  S. R. Gwaltney,  G. Hawkins,  A. Heyden,  
 S. Hirata,  G. Kedziora,  F. J. Keil,  C. Kelley,  Jihan Kim,  R. A. King,  
 R. Z. Khaliullin,  P. P. Korambath,  W. Kurlancheek,  A. M. Lee,  M. S. Lee,  
 S. V. Levchenko,  Ching Yeh Lin,  D. Liotard,  R. C. Lochan,  I. Lotan,  
 P. E. Maslen,  N. Nair,  D. P. O'Neill,  D. Neuhauser,  E. Neuscamman,  
 C. M. Oana,  R. Olson,  B. Peters,  R. Peverati,  P. A. Pieniazek,  
 Y. M. Rhee,  J. Ritchie,  M. A. Rohrdanz,  E. Rosta,  N. J. Russ,  
 H. F. Schaefer III,  N. E. Schultz,  N. Shenvi,  A. C. Simmonett,  A. Sodt,  
 D. Stuck,  K. S. Thanthiriwatte,  V. Vanovschi,  Tao Wang,  A. Warshel,  
 C. F. Williams,  Q. Wu,  X. Xu,  W. Zhang

 Please cite Q-Chem as follows:
 Y. Shao et al., Mol. Phys. 113, 184-215 (2015)
 DOI: 10.1080/00268976.2014.952696

 Q-Chem 5.2.2 for Intel X86 EM64T Linux

 Parts of Q-Chem use Armadillo 9.800.1 (Horizon Scraper).
 http://arma.sourceforge.net/

 Q-Chem begins on Sun Apr 12 05:37:15 2020  

Host: cn0821
0

     Scratch files written to /tmp/ypli/6721342.srvc1/qchem170488//
Warning:  Did not find "$end" marker in "$molecule" section

Checking the input file for inconsistencies... 	...done.

--------------------------------------------------------------
User input:
--------------------------------------------------------------
$rem
   JOBTYPE  sp
   EXCHANGE   omegaB97X-D
   BASIS   6-311+G(2df,2pd)
   max_scf_cycles   250
   geom_opt_max_cycles   1500
   basis2 6-31G*
   scf_algorithm rca_diis
   SYM_IGNORE  TRUE
   print_input   true
   geom_opt_dmax   80
   pop_mulliken false
   XC_GRID 000075000302
$end

$molecule
0 1
C       1.5119692746     -0.0001962471     0.2644476541
C       -0.0000000877     0.0027487838     -0.1141400684
H       1.8996684729     -0.8852703500     0.7691526677
H       1.9048579974     0.8812160505     0.7724076461
H       1.9250252612     0.0067853165     -0.7492778002
C       -1.5119695495     -0.0001966807     0.2644471049
H       0.0000010361     -0.8345811622     -0.8218690999
H       -0.0000004303     0.8267630786     -0.8364059405
H       -1.8996688622     -0.8852702806     0.7691528984
H       -1.9250261504     0.0067864134     -0.7492778026
H       -1.9048570227     0.8812157438     0.7724077593
--------------------------------------------------------------
 ----------------------------------------------------------------
             Standard Nuclear Orientation (Angstroms)
    I     Atom           X                Y                Z
 ----------------------------------------------------------------
    1      C       1.5119692746    -0.0001962471     0.2644476541
    2      C      -0.0000000877     0.0027487838    -0.1141400684
    3      H       1.8996684729    -0.8852703500     0.7691526677
    4      H       1.9048579974     0.8812160505     0.7724076461
    5      H       1.9250252612     0.0067853165    -0.7492778002
    6      C      -1.5119695495    -0.0001966807     0.2644471049
    7      H       0.0000010361    -0.8345811622    -0.8218690999
    8      H      -0.0000004303     0.8267630786    -0.8364059405
    9      H      -1.8996688622    -0.8852702806     0.7691528984
   10      H      -1.9250261504     0.0067864134    -0.7492778026
   11      H      -1.9048570227     0.8812157438     0.7724077593
 ----------------------------------------------------------------
 Nuclear Repulsion Energy =          80.10362168 hartrees
 There are       13 alpha and       13 beta electrons
 Requested basis set is 6-311+G(2df,2pd)
 There are 72 shells and 214 basis functions

 Total QAlloc Memory Limit   2000 MB
 Mega-Array Size       188 MB
 MEM_STATIC part       192 MB

                       Distance Matrix (Angstroms)
             C (  1)   C (  2)   H (  3)   H (  4)   H (  5)   C (  6)
   C (  2)  1.558650
   H (  3)  1.090135  2.275417
   H (  4)  1.090538  2.277313  1.766497
   H (  5)  1.094670  2.027101  1.761260  1.755153
   C (  6)  3.023939  1.558650  3.560528  3.565056  3.583381
   H (  7)  2.040179  1.096358  2.478438  3.018966  2.102114  2.040180
   H (  8)  2.044943  1.095750  3.019540  2.493939  2.094201  2.044943
   H (  9)  3.560528  2.275418  3.799337  4.194629  4.210663  1.090135
   H ( 10)  3.583382  2.027102  4.210663  4.212857  3.850051  1.094670
   H ( 11)  3.565054  2.277312  4.194627  3.809715  4.212856  1.090538
             H (  7)   H (  8)   H (  9)   H ( 10)
   H (  8)  1.661408
   H (  9)  2.478440  3.019539
   H ( 10)  2.102118  2.094201  1.761261
   H ( 11)  3.018967  2.493938  1.766497  1.755153
 
 A cutoff of  1.0D-09 yielded   2463 shell pairs
 There are     21796 function pairs (     26771 Cartesian)
 Smallest overlap matrix eigenvalue = 7.90E-05

 Scale SEOQF with 1.000000e-01/1.000000e-01/1.000000e-01

 Standard Electronic Orientation quadrupole field applied
 Nucleus-field energy     =     0.0000000015 hartrees
 Requested basis set is 6-31G(d)
 There are 28 shells and 58 basis functions
 A cutoff of  1.0D-09 yielded    391 shell pairs
 There are      1754 function pairs (      1947 Cartesian)
 Smallest overlap matrix eigenvalue = 7.21E-03
 Guess from superposition of atomic densities
 Warning:  Energy on first SCF cycle will be non-variational
 SAD guess density has 26.000000 electrons
 Long-range K will be added via erf
 Coulomb attenuation parameter = 0.2 bohr**(-1)
 A restricted hybrid HF-DFT SCF calculation will be
 performed using Relaxed Constraint Minimization + Pulay DIIS
 Exchange:     0.2220 Hartree-Fock + 1.0000 wB97X-D + LR-HF
 Correlation:  1.0000 wB97X-D
 Using Euler-Maclaurin-Lebedev (75,302) quadrature formula
 Dispersion:   Grimme D
 SCF converges when DIIS error is below 1.0E-04
 using 3 threads for integral computing
 -------------------------------------------------------
 OpenMP Integral computing Module                
 Release: version 1.0, May 2013, Q-Chem Inc. Pittsburgh 
 -------------------------------------------------------
 using 3 threads for integral computing
 -------------------------------------------------------
 OpenMP Integral computing Module                
 Release: version 1.0, May 2013, Q-Chem Inc. Pittsburgh 
 -------------------------------------------------------
 ---------------------------------------
  Cycle       Energy         DIIS Error
 ---------------------------------------
    1    -119.5690664674      9.88E-02
    2    -119.0220627108      8.21E-03
    3    -119.0405165936      2.68E-03
    4    -119.0513726724      1.85E-03
    5    -119.0522388184      3.17E-04 Done RCA. Switching to DIIS
    6    -119.0528560247      2.41E-04
    7    -119.0528813898      4.38E-06 Convergence criterion met
 ---------------------------------------
 SCF time:  CPU 32.77 s  wall 11.38 s
 SCF   energy in the small basis set = -119.05288139
 Total energy in the small basis set = -119.05288139
 ----------------------------------------------------
  Cycle       Energy    
 ----------------------------------------------------
    1     -16.5107339144     -1.65E+01
 Long-range K will be added via erf
 Coulomb attenuation parameter = 0.2 bohr**(-1)
 A restricted hybrid HF-DFT SCF calculation will be
 performed using Relaxed Constraint Minimization + Pulay DIIS
 Exchange:     0.2220 Hartree-Fock + 1.0000 wB97X-D + LR-HF
 Correlation:  1.0000 wB97X-D
 Using Euler-Maclaurin-Lebedev (75,302) quadrature formula
 Dispersion:   Grimme D
 SCF converges when DIIS error is below 1.0E-05
 Basis2 calculation detected. Using small basis as guess for larger.
 SCFMinFind is unable to tell whether the solution found is close.
 Resetting ReadMinima to 0 and attempting to follow guess.
 SCFMinFind following SCF Guess.
 using 3 threads for integral computing
 -------------------------------------------------------
 OpenMP Integral computing Module                
 Release: version 1.0, May 2013, Q-Chem Inc. Pittsburgh 
 -------------------------------------------------------
 using 3 threads for integral computing
 -------------------------------------------------------
 OpenMP Integral computing Module                
 Release: version 1.0, May 2013, Q-Chem Inc. Pittsburgh 
 -------------------------------------------------------
 ---------------------------------------
  Cycle       Energy         DIIS Error
 ---------------------------------------
    1    -119.0730583882      4.21E-03
    2    -119.0949020860      5.69E-04 Done RCA. Switching to DIIS
    3    -119.0957123614      3.86E-04
    4    -119.0965314744      4.87E-05
    5    -119.0965470805      1.53E-05
    6    -119.0965484876      4.19E-06 Convergence criterion met
 ---------------------------------------
 SCF time:  CPU 94.20 s  wall 31.89 s
 SCF   energy in the final basis set = -119.09654849
 Total energy in the final basis set = -119.09654849
 
 --------------------------------------------------------------
 
                    Orbital Energies (a.u.)
 --------------------------------------------------------------
 
 Alpha MOs
 -- Occupied --
-10.2803 -10.2761 -10.2761  -0.8749  -0.7941  -0.6722  -0.5352  -0.5051
 -0.5037  -0.4766  -0.4294  -0.3956  -0.3839
 -- Virtual --
  0.0610   0.0855   0.0956   0.0990   0.1099   0.1273   0.1317   0.1583
  0.1679   0.1732   0.2046   0.2187   0.2190   0.2212   0.2338   0.2478
  0.2569   0.2744   0.2748   0.3009   0.3201   0.3762   0.4657   0.4807
  0.4815   0.4925   0.5293   0.5361   0.5618   0.5660   0.5679   0.5904
  0.5940   0.6006   0.6271   0.6449   0.6631   0.6809   0.6966   0.7070
  0.7225   0.7574   0.8441   0.8497   0.8575   0.8863   0.9495   0.9531
  0.9617   0.9664   1.0272   1.0803   1.1405   1.1602   1.1638   1.1733
  1.2318   1.2410   1.2604   1.2763   1.3005   1.3032   1.3071   1.3304
  1.3516   1.3862   1.4223   1.4417   1.4473   1.4480   1.4562   1.4630
  1.4875   1.6015   1.6081   1.6273   1.6436   1.6652   1.7088   1.7613
  1.8062   2.4205   2.4526   2.4545   2.4926   2.5370   2.5769   2.6412
  2.6631   2.6953   2.7019   2.7997   2.8484   2.8699   2.9211   2.9411
  2.9487   2.9551   3.0074   3.0078   3.0518   3.0572   3.0842   3.1039
  3.1375   3.1399   3.1486   3.1880   3.1973   3.2056   3.2340   3.2531
  3.2697   3.2959   3.3019   3.3299   3.3405   3.3446   3.3704   3.4264
  3.4343   3.4404   3.5397   3.5607   3.5618   3.5761   3.6079   3.6151
  3.6346   3.6732   3.7143   3.7149   3.7188   3.7199   3.7379   3.8235
  3.8412   3.8590   3.8959   3.9019   3.9428   4.0083   4.0122   4.0472
  4.0867   4.0953   4.1411   4.1464   4.1587   4.1808   4.1947   4.2198
  4.2219   4.2270   4.2828   4.3509   4.3553   4.3810   4.4655   4.4864
  4.4910   4.5656   4.5746   4.6337   4.7336   4.7708   4.8850   4.8856
  4.8935   4.9227   4.9669   4.9932   5.0158   5.0585   5.0988   5.1196
  5.1701   5.1828   5.2068   5.2483   5.2892   5.2977   5.3262   5.3421
  5.3571   5.4358   5.4556   5.4595   5.5999   5.6716   5.6812   5.8390
  5.9865   6.3667   6.3917   6.3961   6.4142   6.4656  25.1968  25.3772
 25.4163
 --------------------------------------------------------------
 
 -----------------------------------------------------------------
                    Cartesian Multipole Moments
 -----------------------------------------------------------------
    Charge (ESU x 10^10)
                -0.0000
    Dipole Moment (Debye)
         X       0.0000      Y      -0.0045      Z      -0.3284
       Tot       0.3284
    Quadrupole Moments (Debye-Ang)
        XX     -21.6788     XY      -0.0000     YY     -21.5840
        XZ       0.0000     YZ      -0.0276     ZZ     -21.8356
    Octopole Moments (Debye-Ang^2)
       XXX       0.0000    XXY       0.0171    XYY       0.0000
       YYY      -0.0664    XXZ      -2.0120    XYZ       0.0000
       YYZ      -1.3310    XZZ      -0.0000    YZZ      -0.0006
       ZZZ      -7.3656
    Hexadecapole Moments (Debye-Ang^3)
      XXXX    -277.9185   XXXY      -0.0000   XXYY     -50.6380
      XYYY      -0.0000   YYYY     -43.8640   XXXZ       0.0000
      XXYZ      -0.0522   XYYZ      -0.0000   YYYZ       0.0133
      XXZZ     -51.8383   XYZZ      -0.0000   YYZZ     -14.9164
      XZZZ      -0.0000   YZZZ      -0.0138   ZZZZ     -52.5341
 -----------------------------------------------------------------
Archival summary:
1\1\cn0821\SP\ProcedureUnspecified\BasisUnspecified\38\r0852400\SunApr1205:38:022020SunApr1205:38:022020\0\\#,ProcedureUnspecified,BasisUnspecified,\\0,1\C\H,1,1.09575\H,1,1.09636,2,98.5595\C,1,1.55865,2,99.2954,3,-100.593,0\H,4,1.09013,1,117.321,2,163.711,0\H,4,1.09054,1,117.457,2,-64.6265,0\H,4,1.09467,1,98.1108,2,49.2304,0\C,1,1.55865,2,99.2955,3,100.593,0\H,8,1.09013,1,117.321,2,-163.711,0\H,8,1.09054,1,117.458,2,64.6264,0\H,8,1.09467,1,98.1107,2,-49.2305,0\\\@

 Total job time:  47.47s(wall), 132.13s(cpu) 
 Sun Apr 12 05:38:02 2020

        *************************************************************
        *                                                           *
        *  Thank you very much for using Q-Chem.  Have a nice day.  *
        *                                                           *
        *************************************************************


