                  Welcome to Q-Chem
     A Quantum Leap Into The Future Of Chemistry


 Q-Chem 5.2 (devel), Q-Chem, Inc., Pleasanton, CA (2019)

 Yihan Shao,  Zhengting Gan,  E. Epifanovsky,  A. T. B. Gilbert,  M. Wormit,  
 J. Kussmann,  A. W. Lange,  A. Behn,  Jia Deng,  Xintian Feng,  D. Ghosh,  
 M. Goldey,  P. R. Horn,  L. D. Jacobson,  I. Kaliman,  T. Kus,  A. Landau,  
 Jie Liu,  E. I. Proynov,  R. M. Richard,  R. P. Steele,  E. J. Sundstrom,  
 H. L. Woodcock III,  P. M. Zimmerman,  D. Zuev,  B. Alam,  B. Albrecht,  
 E. Alguire,  S. A. Baeppler,  D. Barton,  Z. Benda,  Y. A. Bernard,  
 E. J. Berquist,  K. B. Bravaya,  H. Burton,  K. Carter-Fenk,  D. Casanova,  
 Chun-Min Chang,  Yunqing Chen,  A. Chien,  K. D. Closser,  M. P. Coons,  
 S. Coriani,  S. Dasgupta,  A. L. Dempwolff,  M. Diedenhofen,  Hainam Do,  
 R. G. Edgar,  Po-Tung Fang,  S. Faraji,  S. Fatehi,  Qingguo Feng,  
 J. Fosso-Tande,  J. Gayvert,  Qinghui Ge,  A. Ghysels,  G. Gidofalvi,  
 J. Gomes,  J. Gonthier,  A. Gunina,  D. Hait,  M. W. D. Hanson-Heine,  
 P. H. P. Harbach,  A. W. Hauser,  M. F. Herbst,  J. E. Herr,  
 E. G. Hohenstein,  Z. C. Holden,  Kerwin Hui,  B. C. Huynh,  T.-C. Jagau,  
 Hyunjun Ji,  B. Kaduk,  K. Khistyaev,  Jaehoon Kim,  P. Klunzinger,  K. Koh,  
 D. Kosenkov,  L. Koulias,  T. Kowalczyk,  C. M. Krauter,  A. Kunitsa,  
 Ka Un Lao,  A. Laurent,  K. V. Lawler,  Joonho Lee,  D. Lefrancois,  
 S. Lehtola,  D. S. Levine,  Yi-Pei Li,  You-Sheng Lin,  Fenglai Liu,  
 Kuan-Yu Liu,  E. Livshits,  M. Loipersberger,  A. Luenser,  P. Manohar,  
 E. Mansoor,  S. F. Manzer,  Shan-Ping Mao,  Yuezhi Mao,  N. Mardirossian,  
 A. V. Marenich,  T. Markovich,  L. A. Martinez-Martinez,  S. A. Maurer,  
 N. J. Mayhall,  S. C. McKenzie,  J.-M. Mewes,  P. Morgante,  A. F. Morrison,  
 J. W. Mullinax,  K. Nanda,  T. S. Nguyen-Beck,  R. Olivares-Amaya,  
 J. A. Parkhill,  S. K. Paul,  Zheng Pei,  T. M. Perrine,  F. Plasser,  
 P. Pokhilko,  S. Prager,  A. Prociuk,  E. Ramos,  B. Rana,  D. R. Rehn,  
 F. Rob,  M. Scheurer,  M. Schneider,  N. Sergueev,  S. M. Sharada,  
 S. Sharma,  D. W. Small,  T. Stauch,  C. J. Stein,  T. Stein,  Yu-Chuan Su,  
 S. P. Veccham,  A. J. W. Thom,  A. Tkatchenko,  T. Tsuchimochi,  
 N. M. Tubman,  L. Vogt,  M. L. Vidal,  O. Vydrov,  M. A. Watson,  J. Wenzel,  
 M. de Wergifosse,  T. A. Wesolowski,  A. White,  J. Witte,  A. Yamada,  
 Jun Yang,  K. Yao,  S. Yeganeh,  S. R. Yost,  Zhi-Qiang You,  A. Zech,  
 Igor Ying Zhang,  Xing Zhang,  Yan Zhao,  Ying Zhu,  B. R. Brooks,  
 G. K. L. Chan,  C. J. Cramer,  M. S. Gordon,  W. J. Hehre,  A. Klamt,  
 M. W. Schmidt,  C. D. Sherrill,  D. G. Truhlar,  A. Aspuru-Guzik,  R. Baer,  
 A. T. Bell,  N. A. Besley,  Jeng-Da Chai,  A. E. DePrince, III,  
 R. A. DiStasio Jr.,  A. Dreuw,  B. D. Dunietz,  T. R. Furlani,  
 Chao-Ping Hsu,  Yousung Jung,  Jing Kong,  D. S. Lambrecht,  WanZhen Liang,  
 C. Ochsenfeld,  V. A. Rassolov,  L. V. Slipchenko,  J. E. Subotnik,  
 T. Van Voorhis,  J. M. Herbert,  A. I. Krylov,  P. M. W. Gill,  M. Head-Gordon

 Contributors to earlier versions of Q-Chem not listed above: 
 R. D. Adamson,  B. Austin,  J. Baker,  G. J. O. Beran,  K. Brandhorst,  
 S. T. Brown,  E. F. C. Byrd,  A. K. Chakraborty,  C.-L. Cheng,  
 Siu Hung Chien,  D. M. Chipman,  D. L. Crittenden,  H. Dachsel,  
 R. J. Doerksen,  A. D. Dutoi,  L. Fusti-Molnar,  W. A. Goddard III,  
 A. Golubeva-Zadorozhnaya,  S. R. Gwaltney,  G. Hawkins,  A. Heyden,  
 S. Hirata,  G. Kedziora,  F. J. Keil,  C. Kelley,  Jihan Kim,  R. A. King,  
 R. Z. Khaliullin,  P. P. Korambath,  W. Kurlancheek,  A. M. Lee,  M. S. Lee,  
 S. V. Levchenko,  Ching Yeh Lin,  D. Liotard,  R. C. Lochan,  I. Lotan,  
 P. E. Maslen,  N. Nair,  D. P. O'Neill,  D. Neuhauser,  E. Neuscamman,  
 C. M. Oana,  R. Olson,  B. Peters,  R. Peverati,  P. A. Pieniazek,  
 Y. M. Rhee,  J. Ritchie,  M. A. Rohrdanz,  E. Rosta,  N. J. Russ,  
 H. F. Schaefer III,  N. E. Schultz,  N. Shenvi,  A. C. Simmonett,  A. Sodt,  
 D. Stuck,  K. S. Thanthiriwatte,  V. Vanovschi,  Tao Wang,  A. Warshel,  
 C. F. Williams,  Q. Wu,  X. Xu,  W. Zhang

 Please cite Q-Chem as follows:
 Y. Shao et al., Mol. Phys. 113, 184-215 (2015)
 DOI: 10.1080/00268976.2014.952696

 Q-Chem 5.2.2 for Intel X86 EM64T Linux

 Parts of Q-Chem use Armadillo 9.800.1 (Horizon Scraper).
 http://arma.sourceforge.net/

 Q-Chem begins on Sun Apr 12 05:42:56 2020  

Host: cn0821
0

     Scratch files written to /tmp/ypli/6721342.srvc1/qchem171306//
Warning:  Did not find "$end" marker in "$molecule" section

Checking the input file for inconsistencies... 	...done.

--------------------------------------------------------------
User input:
--------------------------------------------------------------
$rem
   JOBTYPE  sp
   EXCHANGE   omegaB97X-D
   BASIS   6-311+G(2df,2pd)
   max_scf_cycles   250
   geom_opt_max_cycles   1500
   basis2 6-31G*
   scf_algorithm rca_diis
   SYM_IGNORE  TRUE
   print_input   true
   geom_opt_dmax   80
   pop_mulliken false
   XC_GRID 000075000302
$end

$molecule
0 1
C       1.2433705240     -0.1165858945     0.2551574768
C       0.0000000321     -0.2100482541     -0.6270814284
H       1.4616948004     -0.7806126534     1.0896611093
H       1.0203825376     0.8720964952     0.6723367907
H       2.1375570883     0.0467332832     -0.3459824139
C       -1.2433702315     -0.1165860137     0.2551579296
H       0.0000000409     -0.7101828193     -1.5926610420
H       -0.0000003884     0.8769683243     -0.7815587168
H       -1.4616951137     -0.7806127391     1.0896613166
H       -2.1375564091     0.0467339820     -0.3459823450
H       -1.0203829413     0.8720969553     0.6723363420
--------------------------------------------------------------
 ----------------------------------------------------------------
             Standard Nuclear Orientation (Angstroms)
    I     Atom           X                Y                Z
 ----------------------------------------------------------------
    1      C       1.2433705240    -0.1165858945     0.2551574768
    2      C       0.0000000321    -0.2100482541    -0.6270814284
    3      H       1.4616948004    -0.7806126534     1.0896611093
    4      H       1.0203825376     0.8720964952     0.6723367907
    5      H       2.1375570883     0.0467332832    -0.3459824139
    6      C      -1.2433702315    -0.1165860137     0.2551579296
    7      H       0.0000000409    -0.7101828193    -1.5926610420
    8      H      -0.0000003884     0.8769683243    -0.7815587168
    9      H      -1.4616951137    -0.7806127391     1.0896613166
   10      H      -2.1375564091     0.0467339820    -0.3459823450
   11      H      -1.0203829413     0.8720969553     0.6723363420
 ----------------------------------------------------------------
 Nuclear Repulsion Energy =          83.52710339 hartrees
 There are       13 alpha and       13 beta electrons
 Requested basis set is 6-311+G(2df,2pd)
 There are 72 shells and 214 basis functions

 Total QAlloc Memory Limit   2000 MB
 Mega-Array Size       188 MB
 MEM_STATIC part       192 MB

                       Distance Matrix (Angstroms)
             C (  1)   C (  2)   H (  3)   H (  4)   H (  5)   C (  6)
   C (  2)  1.527433
   H (  3)  1.088574  2.325790
   H (  4)  1.096018  1.975020  1.760785
   H (  5)  1.089776  2.171199  1.789515  1.722288
   C (  6)  2.486741  1.527433  2.907697  2.505216  3.437835
   H (  7)  2.304943  1.087418  3.055546  2.945336  2.587717  2.304943
   H (  8)  1.899448  1.097938  2.895789  1.776237  2.334131  1.899447
   H (  9)  2.907698  2.325791  2.923390  3.011033  3.962347  1.088574
   H ( 10)  3.437835  2.171198  3.962346  3.419178  4.275113  1.089776
   H ( 11)  2.505217  1.975021  3.011033  2.040765  3.419179  1.096018
             H (  7)   H (  8)   H (  9)   H ( 10)
   H (  8)  1.782396
   H (  9)  3.055547  2.895788
   H ( 10)  2.587717  2.334130  1.789515
   H ( 11)  2.945336  1.776236  1.760786  1.722287
 
 A cutoff of  1.0D-09 yielded   2545 shell pairs
 There are     22625 function pairs (     27834 Cartesian)
 Smallest overlap matrix eigenvalue = 1.08E-04

 Scale SEOQF with 1.000000e-01/1.000000e-01/1.000000e-01

 Standard Electronic Orientation quadrupole field applied
 Nucleus-field energy     =     0.0000000005 hartrees
 Requested basis set is 6-31G(d)
 There are 28 shells and 58 basis functions
 A cutoff of  1.0D-09 yielded    402 shell pairs
 There are      1773 function pairs (      1968 Cartesian)
 Smallest overlap matrix eigenvalue = 5.73E-03
 Guess from superposition of atomic densities
 Warning:  Energy on first SCF cycle will be non-variational
 SAD guess density has 26.000000 electrons
 Long-range K will be added via erf
 Coulomb attenuation parameter = 0.2 bohr**(-1)
 A restricted hybrid HF-DFT SCF calculation will be
 performed using Relaxed Constraint Minimization + Pulay DIIS
 Exchange:     0.2220 Hartree-Fock + 1.0000 wB97X-D + LR-HF
 Correlation:  1.0000 wB97X-D
 Using Euler-Maclaurin-Lebedev (75,302) quadrature formula
 Dispersion:   Grimme D
 SCF converges when DIIS error is below 1.0E-04
 using 3 threads for integral computing
 -------------------------------------------------------
 OpenMP Integral computing Module                
 Release: version 1.0, May 2013, Q-Chem Inc. Pittsburgh 
 -------------------------------------------------------
 using 3 threads for integral computing
 -------------------------------------------------------
 OpenMP Integral computing Module                
 Release: version 1.0, May 2013, Q-Chem Inc. Pittsburgh 
 -------------------------------------------------------
 ---------------------------------------
  Cycle       Energy         DIIS Error
 ---------------------------------------
    1    -119.7039945017      1.02E-01
    2    -119.0151220833      8.99E-03
    3    -119.0362567049      2.57E-03
    4    -119.0501835372      1.77E-03
    5    -119.0509516112      2.76E-04 Done RCA. Switching to DIIS
    6    -119.0515223213      2.05E-04
    7    -119.0515404794      5.57E-06 Convergence criterion met
 ---------------------------------------
 SCF time:  CPU 33.60 s  wall 11.65 s
 SCF   energy in the small basis set = -119.05154048
 Total energy in the small basis set = -119.05154048
 ----------------------------------------------------
  Cycle       Energy    
 ----------------------------------------------------
    1     -16.5486396707     -1.65E+01
 Long-range K will be added via erf
 Coulomb attenuation parameter = 0.2 bohr**(-1)
 A restricted hybrid HF-DFT SCF calculation will be
 performed using Relaxed Constraint Minimization + Pulay DIIS
 Exchange:     0.2220 Hartree-Fock + 1.0000 wB97X-D + LR-HF
 Correlation:  1.0000 wB97X-D
 Using Euler-Maclaurin-Lebedev (75,302) quadrature formula
 Dispersion:   Grimme D
 SCF converges when DIIS error is below 1.0E-05
 Basis2 calculation detected. Using small basis as guess for larger.
 SCFMinFind is unable to tell whether the solution found is close.
 Resetting ReadMinima to 0 and attempting to follow guess.
 SCFMinFind following SCF Guess.
 using 3 threads for integral computing
 -------------------------------------------------------
 OpenMP Integral computing Module                
 Release: version 1.0, May 2013, Q-Chem Inc. Pittsburgh 
 -------------------------------------------------------
 using 3 threads for integral computing
 -------------------------------------------------------
 OpenMP Integral computing Module                
 Release: version 1.0, May 2013, Q-Chem Inc. Pittsburgh 
 -------------------------------------------------------
 ---------------------------------------
  Cycle       Energy         DIIS Error
 ---------------------------------------
    1    -119.0729704926      4.21E-03
    2    -119.0948455708      6.04E-04 Done RCA. Switching to DIIS
    3    -119.0956862832      4.26E-04
    4    -119.0966743284      4.69E-05
    5    -119.0966899255      1.09E-05
    6    -119.0966907365      3.80E-06 Convergence criterion met
 ---------------------------------------
 SCF time:  CPU 98.79 s  wall 33.40 s
 SCF   energy in the final basis set = -119.09669074
 Total energy in the final basis set = -119.09669074
 
 --------------------------------------------------------------
 
                    Orbital Energies (a.u.)
 --------------------------------------------------------------
 
 Alpha MOs
 -- Occupied --
-10.2782 -10.2685 -10.2685  -0.8977  -0.7779  -0.6754  -0.5650  -0.5210
 -0.4953  -0.4467  -0.4302  -0.4135  -0.3830
 -- Virtual --
  0.0679   0.0857   0.0872   0.0940   0.1259   0.1284   0.1289   0.1340
  0.1419   0.1714   0.1746   0.1935   0.2201   0.2418   0.2448   0.2637
  0.2768   0.2905   0.3110   0.3148   0.3321   0.3488   0.4613   0.4635
  0.4679   0.4842   0.5124   0.5141   0.5431   0.5559   0.5731   0.5949
  0.6133   0.6272   0.6290   0.6483   0.6542   0.6917   0.6996   0.7254
  0.7279   0.7917   0.8264   0.8390   0.8623   0.9001   0.9436   0.9910
  1.0203   1.0353   1.0683   1.1042   1.1226   1.1546   1.2105   1.2129
  1.2324   1.2326   1.2946   1.3087   1.3312   1.3405   1.3578   1.3668
  1.3854   1.4218   1.4269   1.4311   1.4515   1.4614   1.5000   1.5379
  1.5465   1.5622   1.5813   1.5948   1.6385   1.6421   1.6638   1.7116
  1.7232   2.3936   2.3986   2.4171   2.5452   2.5748   2.6034   2.6258
  2.6458   2.6886   2.7958   2.8399   2.8715   2.8789   2.9004   2.9059
  2.9824   2.9846   2.9996   3.0157   3.0388   3.0456   3.0670   3.1165
  3.1565   3.1784   3.1855   3.2098   3.2220   3.2470   3.2784   3.2907
  3.3146   3.3337   3.3702   3.3965   3.4038   3.4083   3.4282   3.4592
  3.5069   3.5414   3.5454   3.5473   3.5592   3.5860   3.5976   3.6017
  3.6026   3.6131   3.6510   3.6805   3.7182   3.8114   3.8245   3.8528
  3.8990   3.9206   3.9390   3.9732   3.9968   4.0203   4.0242   4.0933
  4.1048   4.1181   4.1285   4.1658   4.2104   4.2173   4.2360   4.2498
  4.2621   4.2859   4.3084   4.3488   4.3695   4.3959   4.4674   4.4850
  4.5924   4.6057   4.6262   4.7350   4.7963   4.8248   4.8477   4.8893
  4.9308   4.9389   4.9705   4.9887   5.0018   5.1078   5.1157   5.1391
  5.1683   5.2010   5.2611   5.2803   5.2911   5.3168   5.3800   5.3920
  5.4212   5.4418   5.4793   5.5569   5.6336   5.6887   5.7434   5.7750
  5.9758   6.4053   6.4105   6.4388   6.4766   6.5543  25.1518  25.4390
 25.4399
 --------------------------------------------------------------
 
 -----------------------------------------------------------------
                    Cartesian Multipole Moments
 -----------------------------------------------------------------
    Charge (ESU x 10^10)
                -0.0000
    Dipole Moment (Debye)
         X      -0.0000      Y       0.2981      Z      -0.1142
       Tot       0.3192
    Quadrupole Moments (Debye-Ang)
        XX     -22.2599     XY      -0.0000     YY     -21.8466
        XZ      -0.0000     YZ      -0.1529     ZZ     -21.6485
    Octopole Moments (Debye-Ang^2)
       XXX       0.0000    XXY       1.7122    XYY      -0.0000
       YYY       6.8728    XXZ      -0.8897    XYZ       0.0000
       YYZ       0.6507    XZZ      -0.0000    YZZ       0.1276
       ZZZ      -0.2187
    Hexadecapole Moments (Debye-Ang^3)
      XXXX    -194.8613   XXXY      -0.0000   XXYY     -41.7989
      XYYY       0.0000   YYYY     -44.4053   XXXZ      -0.0000
      XXYZ      -2.2598   XYYZ       0.0000   YYYZ      -1.0314
      XXZZ     -43.5341   XYZZ       0.0000   YYZZ     -18.5569
      XZZZ       0.0000   YZZZ      -0.3269   ZZZZ     -70.1239
 -----------------------------------------------------------------
Archival summary:
1\1\cn0821\SP\ProcedureUnspecified\BasisUnspecified\38\r0852400\SunApr1205:43:452020SunApr1205:43:452020\0\\#,ProcedureUnspecified,BasisUnspecified,\\0,1\C\H,1,1.08742\H,1,1.09794,2,109.294\C,1,1.52743,2,122.753,3,-104.553,0\H,4,1.08857,1,124.661,2,-97.6814,0\H,4,1.08978,1,111.007,2,38.4531,0\H,4,1.09602,1,96.2826,2,146.077,0\C,1,1.52743,2,122.753,3,104.553,0\H,8,1.08857,1,124.661,2,97.6814,0\H,8,1.08978,1,111.007,2,-38.4532,0\H,8,1.09602,1,96.2826,2,-146.077,0\\\@

 Total job time:  49.38s(wall), 137.70s(cpu) 
 Sun Apr 12 05:43:45 2020

        *************************************************************
        *                                                           *
        *  Thank you very much for using Q-Chem.  Have a nice day.  *
        *                                                           *
        *************************************************************


