                  Welcome to Q-Chem
     A Quantum Leap Into The Future Of Chemistry


 Q-Chem 5.2 (devel), Q-Chem, Inc., Pleasanton, CA (2019)

 Yihan Shao,  Zhengting Gan,  E. Epifanovsky,  A. T. B. Gilbert,  M. Wormit,  
 J. Kussmann,  A. W. Lange,  A. Behn,  Jia Deng,  Xintian Feng,  D. Ghosh,  
 M. Goldey,  P. R. Horn,  L. D. Jacobson,  I. Kaliman,  T. Kus,  A. Landau,  
 Jie Liu,  E. I. Proynov,  R. M. Richard,  R. P. Steele,  E. J. Sundstrom,  
 H. L. Woodcock III,  P. M. Zimmerman,  D. Zuev,  B. Alam,  B. Albrecht,  
 E. Alguire,  S. A. Baeppler,  D. Barton,  Z. Benda,  Y. A. Bernard,  
 E. J. Berquist,  K. B. Bravaya,  H. Burton,  K. Carter-Fenk,  D. Casanova,  
 Chun-Min Chang,  Yunqing Chen,  A. Chien,  K. D. Closser,  M. P. Coons,  
 S. Coriani,  S. Dasgupta,  A. L. Dempwolff,  M. Diedenhofen,  Hainam Do,  
 R. G. Edgar,  Po-Tung Fang,  S. Faraji,  S. Fatehi,  Qingguo Feng,  
 J. Fosso-Tande,  J. Gayvert,  Qinghui Ge,  A. Ghysels,  G. Gidofalvi,  
 J. Gomes,  J. Gonthier,  A. Gunina,  D. Hait,  M. W. D. Hanson-Heine,  
 P. H. P. Harbach,  A. W. Hauser,  M. F. Herbst,  J. E. Herr,  
 E. G. Hohenstein,  Z. C. Holden,  Kerwin Hui,  B. C. Huynh,  T.-C. Jagau,  
 Hyunjun Ji,  B. Kaduk,  K. Khistyaev,  Jaehoon Kim,  P. Klunzinger,  K. Koh,  
 D. Kosenkov,  L. Koulias,  T. Kowalczyk,  C. M. Krauter,  A. Kunitsa,  
 Ka Un Lao,  A. Laurent,  K. V. Lawler,  Joonho Lee,  D. Lefrancois,  
 S. Lehtola,  D. S. Levine,  Yi-Pei Li,  You-Sheng Lin,  Fenglai Liu,  
 Kuan-Yu Liu,  E. Livshits,  M. Loipersberger,  A. Luenser,  P. Manohar,  
 E. Mansoor,  S. F. Manzer,  Shan-Ping Mao,  Yuezhi Mao,  N. Mardirossian,  
 A. V. Marenich,  T. Markovich,  L. A. Martinez-Martinez,  S. A. Maurer,  
 N. J. Mayhall,  S. C. McKenzie,  J.-M. Mewes,  P. Morgante,  A. F. Morrison,  
 J. W. Mullinax,  K. Nanda,  T. S. Nguyen-Beck,  R. Olivares-Amaya,  
 J. A. Parkhill,  S. K. Paul,  Zheng Pei,  T. M. Perrine,  F. Plasser,  
 P. Pokhilko,  S. Prager,  A. Prociuk,  E. Ramos,  B. Rana,  D. R. Rehn,  
 F. Rob,  M. Scheurer,  M. Schneider,  N. Sergueev,  S. M. Sharada,  
 S. Sharma,  D. W. Small,  T. Stauch,  C. J. Stein,  T. Stein,  Yu-Chuan Su,  
 S. P. Veccham,  A. J. W. Thom,  A. Tkatchenko,  T. Tsuchimochi,  
 N. M. Tubman,  L. Vogt,  M. L. Vidal,  O. Vydrov,  M. A. Watson,  J. Wenzel,  
 M. de Wergifosse,  T. A. Wesolowski,  A. White,  J. Witte,  A. Yamada,  
 Jun Yang,  K. Yao,  S. Yeganeh,  S. R. Yost,  Zhi-Qiang You,  A. Zech,  
 Igor Ying Zhang,  Xing Zhang,  Yan Zhao,  Ying Zhu,  B. R. Brooks,  
 G. K. L. Chan,  C. J. Cramer,  M. S. Gordon,  W. J. Hehre,  A. Klamt,  
 M. W. Schmidt,  C. D. Sherrill,  D. G. Truhlar,  A. Aspuru-Guzik,  R. Baer,  
 A. T. Bell,  N. A. Besley,  Jeng-Da Chai,  A. E. DePrince, III,  
 R. A. DiStasio Jr.,  A. Dreuw,  B. D. Dunietz,  T. R. Furlani,  
 Chao-Ping Hsu,  Yousung Jung,  Jing Kong,  D. S. Lambrecht,  WanZhen Liang,  
 C. Ochsenfeld,  V. A. Rassolov,  L. V. Slipchenko,  J. E. Subotnik,  
 T. Van Voorhis,  J. M. Herbert,  A. I. Krylov,  P. M. W. Gill,  M. Head-Gordon

 Contributors to earlier versions of Q-Chem not listed above: 
 R. D. Adamson,  B. Austin,  J. Baker,  G. J. O. Beran,  K. Brandhorst,  
 S. T. Brown,  E. F. C. Byrd,  A. K. Chakraborty,  C.-L. Cheng,  
 Siu Hung Chien,  D. M. Chipman,  D. L. Crittenden,  H. Dachsel,  
 R. J. Doerksen,  A. D. Dutoi,  L. Fusti-Molnar,  W. A. Goddard III,  
 A. Golubeva-Zadorozhnaya,  S. R. Gwaltney,  G. Hawkins,  A. Heyden,  
 S. Hirata,  G. Kedziora,  F. J. Keil,  C. Kelley,  Jihan Kim,  R. A. King,  
 R. Z. Khaliullin,  P. P. Korambath,  W. Kurlancheek,  A. M. Lee,  M. S. Lee,  
 S. V. Levchenko,  Ching Yeh Lin,  D. Liotard,  R. C. Lochan,  I. Lotan,  
 P. E. Maslen,  N. Nair,  D. P. O'Neill,  D. Neuhauser,  E. Neuscamman,  
 C. M. Oana,  R. Olson,  B. Peters,  R. Peverati,  P. A. Pieniazek,  
 Y. M. Rhee,  J. Ritchie,  M. A. Rohrdanz,  E. Rosta,  N. J. Russ,  
 H. F. Schaefer III,  N. E. Schultz,  N. Shenvi,  A. C. Simmonett,  A. Sodt,  
 D. Stuck,  K. S. Thanthiriwatte,  V. Vanovschi,  Tao Wang,  A. Warshel,  
 C. F. Williams,  Q. Wu,  X. Xu,  W. Zhang

 Please cite Q-Chem as follows:
 Y. Shao et al., Mol. Phys. 113, 184-215 (2015)
 DOI: 10.1080/00268976.2014.952696

 Q-Chem 5.2.2 for Intel X86 EM64T Linux

 Parts of Q-Chem use Armadillo 9.800.1 (Horizon Scraper).
 http://arma.sourceforge.net/

 Q-Chem begins on Sun Apr 12 07:24:43 2020  

Host: cn0821
0

     Scratch files written to /tmp/ypli/6721342.srvc1/qchem186940//
Warning:  Did not find "$end" marker in "$molecule" section

Checking the input file for inconsistencies... 	...done.

--------------------------------------------------------------
User input:
--------------------------------------------------------------
$rem
   JOBTYPE  sp
   EXCHANGE   omegaB97X-D
   BASIS   6-311+G(2df,2pd)
   max_scf_cycles   250
   geom_opt_max_cycles   1500
   basis2 6-31G*
   scf_algorithm rca_diis
   SYM_IGNORE  TRUE
   print_input   true
   geom_opt_dmax   80
   pop_mulliken false
   XC_GRID 000075000302
$end

$molecule
0 1
C       1.2617130493     -0.0114525159     0.2480134933
C       0.0000001681     -0.0132684503     -0.6247910569
H       1.2735543377     -0.9152596183     0.8570522874
H       1.3454224724     0.9035089656     0.8381867582
H       2.1783312824     0.0403553150     -0.3447857488
C       -1.2617127074     -0.0114536920     0.2480137209
H       0.0000008030     -0.9809566401     -1.1217076724
H       -0.0000009614     0.9599160566     -1.1093888854
H       -1.2735486449     -0.9152605695     0.8570524517
H       -2.1783314274     0.0403624349     -0.3447842272
H       -1.3454284324     0.9035093800     0.8381838981
--------------------------------------------------------------
 ----------------------------------------------------------------
             Standard Nuclear Orientation (Angstroms)
    I     Atom           X                Y                Z
 ----------------------------------------------------------------
    1      C       1.2617130493    -0.0114525159     0.2480134933
    2      C       0.0000001681    -0.0132684503    -0.6247910569
    3      H       1.2735543377    -0.9152596183     0.8570522874
    4      H       1.3454224724     0.9035089656     0.8381867582
    5      H       2.1783312824     0.0403553150    -0.3447857488
    6      C      -1.2617127074    -0.0114536920     0.2480137209
    7      H       0.0000008030    -0.9809566401    -1.1217076724
    8      H      -0.0000009614     0.9599160566    -1.1093888854
    9      H      -1.2735486449    -0.9152605695     0.8570524517
   10      H      -2.1783314274     0.0403624349    -0.3447842272
   11      H      -1.3454284324     0.9035093800     0.8381838981
 ----------------------------------------------------------------
 Nuclear Repulsion Energy =          82.77465368 hartrees
 There are       13 alpha and       13 beta electrons
 Requested basis set is 6-311+G(2df,2pd)
 There are 72 shells and 214 basis functions

 Total QAlloc Memory Limit   2000 MB
 Mega-Array Size       188 MB
 MEM_STATIC part       192 MB

                       Distance Matrix (Angstroms)
             C (  1)   C (  2)   H (  3)   H (  4)   H (  5)   C (  6)
   C (  2)  1.534181
   H (  3)  1.089925  2.152066
   H (  4)  1.092001  2.188823  1.820286
   H (  5)  1.092833  2.196908  1.782200  1.684694
   C (  6)  2.523426  1.534181  2.759596  2.825352  3.491131
   H (  7)  2.099522  1.087817  2.354091  3.033572  2.528203  2.099522
   H (  8)  2.092372  1.087163  3.000853  2.367783  2.485023  2.092371
   H (  9)  2.759592  2.152063  2.547103  3.188619  3.777975  1.089924
   H ( 10)  3.491132  2.196909  3.777981  3.815925  4.356663  1.092833
   H ( 11)  2.825357  2.188825  3.188628  2.690851  3.815932  1.092001
             H (  7)   H (  8)   H (  9)   H ( 10)
   H (  8)  1.940912
   H (  9)  2.354089  3.000850
   H ( 10)  2.528208  2.485020  1.782206
   H ( 11)  3.033573  2.367783  1.820288  1.684685
 
 A cutoff of  1.0D-09 yielded   2536 shell pairs
 There are     22590 function pairs (     27771 Cartesian)
 Smallest overlap matrix eigenvalue = 8.51E-05

 Scale SEOQF with 1.000000e-01/1.000000e-01/1.000000e-01

 Standard Electronic Orientation quadrupole field applied
 Nucleus-field energy     =     0.0000000007 hartrees
 Requested basis set is 6-31G(d)
 There are 28 shells and 58 basis functions
 A cutoff of  1.0D-09 yielded    402 shell pairs
 There are      1773 function pairs (      1968 Cartesian)
 Smallest overlap matrix eigenvalue = 6.56E-03
 Guess from superposition of atomic densities
 Warning:  Energy on first SCF cycle will be non-variational
 SAD guess density has 26.000000 electrons
 Long-range K will be added via erf
 Coulomb attenuation parameter = 0.2 bohr**(-1)
 A restricted hybrid HF-DFT SCF calculation will be
 performed using Relaxed Constraint Minimization + Pulay DIIS
 Exchange:     0.2220 Hartree-Fock + 1.0000 wB97X-D + LR-HF
 Correlation:  1.0000 wB97X-D
 Using Euler-Maclaurin-Lebedev (75,302) quadrature formula
 Dispersion:   Grimme D
 SCF converges when DIIS error is below 1.0E-04
 using 3 threads for integral computing
 -------------------------------------------------------
 OpenMP Integral computing Module                
 Release: version 1.0, May 2013, Q-Chem Inc. Pittsburgh 
 -------------------------------------------------------
 using 3 threads for integral computing
 -------------------------------------------------------
 OpenMP Integral computing Module                
 Release: version 1.0, May 2013, Q-Chem Inc. Pittsburgh 
 -------------------------------------------------------
 ---------------------------------------
  Cycle       Energy         DIIS Error
 ---------------------------------------
    1    -119.6135424729      1.00E-01
    2    -119.0517351607      9.14E-03
    3    -119.0736322004      2.52E-03
    4    -119.0878651331      1.72E-03
    5    -119.0886009074      2.88E-04 Done RCA. Switching to DIIS
    6    -119.0891291182      2.10E-04
    7    -119.0891483299      5.98E-06 Convergence criterion met
 ---------------------------------------
 SCF time:  CPU 33.07 s  wall 11.43 s
 SCF   energy in the small basis set = -119.08914833
 Total energy in the small basis set = -119.08914833
 ----------------------------------------------------
  Cycle       Energy    
 ----------------------------------------------------
    1     -16.5367856414     -1.65E+01
 Long-range K will be added via erf
 Coulomb attenuation parameter = 0.2 bohr**(-1)
 A restricted hybrid HF-DFT SCF calculation will be
 performed using Relaxed Constraint Minimization + Pulay DIIS
 Exchange:     0.2220 Hartree-Fock + 1.0000 wB97X-D + LR-HF
 Correlation:  1.0000 wB97X-D
 Using Euler-Maclaurin-Lebedev (75,302) quadrature formula
 Dispersion:   Grimme D
 SCF converges when DIIS error is below 1.0E-05
 Basis2 calculation detected. Using small basis as guess for larger.
 SCFMinFind is unable to tell whether the solution found is close.
 Resetting ReadMinima to 0 and attempting to follow guess.
 SCFMinFind following SCF Guess.
 using 3 threads for integral computing
 -------------------------------------------------------
 OpenMP Integral computing Module                
 Release: version 1.0, May 2013, Q-Chem Inc. Pittsburgh 
 -------------------------------------------------------
 using 3 threads for integral computing
 -------------------------------------------------------
 OpenMP Integral computing Module                
 Release: version 1.0, May 2013, Q-Chem Inc. Pittsburgh 
 -------------------------------------------------------
 ---------------------------------------
  Cycle       Energy         DIIS Error
 ---------------------------------------
    1    -119.1086005847      4.22E-03
    2    -119.1306660244      6.21E-04 Done RCA. Switching to DIIS
    3    -119.1315615080      4.37E-04
    4    -119.1326077119      4.37E-05
    5    -119.1326220330      9.09E-06 Convergence criterion met
 ---------------------------------------
 SCF time:  CPU 84.23 s  wall 28.55 s
 SCF   energy in the final basis set = -119.13262203
 Total energy in the final basis set = -119.13262203
 
 --------------------------------------------------------------
 
                    Orbital Energies (a.u.)
 --------------------------------------------------------------
 
 Alpha MOs
 -- Occupied --
-10.2761 -10.2641 -10.2641  -0.8828  -0.7762  -0.6720  -0.5687  -0.5142
 -0.4760  -0.4696  -0.4251  -0.4143  -0.3944
 -- Virtual --
  0.0704   0.0855   0.0933   0.0945   0.1269   0.1312   0.1330   0.1332
  0.1384   0.1729   0.1737   0.1892   0.2336   0.2418   0.2474   0.2751
  0.2854   0.2854   0.2865   0.3138   0.3333   0.3427   0.4574   0.4686
  0.4691   0.4917   0.5106   0.5183   0.5509   0.5605   0.5859   0.6042
  0.6253   0.6266   0.6291   0.6471   0.6619   0.6665   0.7098   0.7147
  0.7262   0.7723   0.8367   0.8537   0.8714   0.8777   0.8812   0.9500
  1.0045   1.0244   1.0481   1.1375   1.1488   1.1747   1.1900   1.1970
  1.2123   1.2354   1.2660   1.2736   1.3111   1.3159   1.3162   1.3679
  1.3814   1.3881   1.4014   1.4517   1.4601   1.4660   1.4817   1.5002
  1.5269   1.5757   1.5796   1.6188   1.6322   1.6417   1.6770   1.7100
  1.7370   2.3803   2.4587   2.5033   2.5162   2.5913   2.5977   2.6078
  2.6453   2.6951   2.8278   2.8428   2.8505   2.8976   2.9122   2.9219
  2.9336   2.9480   2.9813   3.0202   3.0428   3.0668   3.0757   3.1010
  3.1117   3.1487   3.1759   3.1960   3.2176   3.2365   3.2663   3.2810
  3.2999   3.3088   3.3442   3.3450   3.3901   3.3910   3.4169   3.4261
  3.4722   3.5043   3.5142   3.5470   3.5681   3.5686   3.5982   3.6170
  3.6278   3.6476   3.7106   3.7314   3.8068   3.8141   3.8164   3.8340
  3.8903   3.9491   3.9496   3.9657   3.9752   3.9832   4.0354   4.0437
  4.0561   4.0587   4.0906   4.1225   4.1510   4.1612   4.1681   4.1812
  4.1996   4.2522   4.2671   4.3483   4.4077   4.4227   4.4276   4.4327
  4.4390   4.6060   4.6272   4.6685   4.7324   4.7347   4.8129   4.8826
  4.9047   4.9237   4.9492   4.9630   4.9675   5.0533   5.0563   5.1254
  5.1259   5.1896   5.2044   5.2389   5.3114   5.3493   5.3577   5.4039
  5.4095   5.5127   5.5205   5.5482   5.5562   5.5878   5.7550   5.7716
  6.0541   6.3308   6.3438   6.4230   6.4340   6.4626  25.1987  25.4416
 25.4541
 --------------------------------------------------------------
 
 -----------------------------------------------------------------
                    Cartesian Multipole Moments
 -----------------------------------------------------------------
    Charge (ESU x 10^10)
                -0.0000
    Dipole Moment (Debye)
         X      -0.0000      Y       0.0604      Z      -0.0565
       Tot       0.0827
    Quadrupole Moments (Debye-Ang)
        XX     -22.2663     XY      -0.0000     YY     -20.6023
        XZ      -0.0000     YZ      -0.1007     ZZ     -22.8354
    Octopole Moments (Debye-Ang^2)
       XXX      -0.0000    XXY       1.2163    XYY      -0.0000
       YYY       0.4448    XXZ      -1.0897    XYZ       0.0000
       YYZ       0.4284    XZZ       0.0000    YZZ       0.0178
       ZZZ       1.0657
    Hexadecapole Moments (Debye-Ang^3)
      XXXX    -202.6311   XXXY      -0.0002   XXYY     -42.0575
      XYYY       0.0000   YYYY     -44.5398   XXXZ      -0.0000
      XXYZ       0.0169   XYYZ       0.0000   YYYZ      -0.0349
      XXZZ     -45.7622   XYZZ       0.0000   YYZZ     -17.1081
      XZZZ       0.0000   YZZZ      -0.0719   ZZZZ     -72.2965
 -----------------------------------------------------------------
Archival summary:
1\1\cn0821\SP\ProcedureUnspecified\BasisUnspecified\38\r0852400\SunApr1207:25:272020SunApr1207:25:272020\0\\#,ProcedureUnspecified,BasisUnspecified,\\0,1\C\H,1,1.08716\H,1,1.08782,2,126.348\C,1,1.53418,2,104.627,3,121.794,0\H,4,1.08992,1,109.017,2,173.608,0\H,4,1.092,1,111.808,2,47.8423,0\H,4,1.09283,1,112.411,2,-64.8255,0\C,1,1.53418,2,104.627,3,-121.794,0\H,8,1.08992,1,109.017,2,-173.608,0\H,8,1.092,1,111.808,2,-47.842,0\H,8,1.09283,1,112.411,2,64.8249,0\\\@

 Total job time:  44.37s(wall), 122.61s(cpu) 
 Sun Apr 12 07:25:27 2020

        *************************************************************
        *                                                           *
        *  Thank you very much for using Q-Chem.  Have a nice day.  *
        *                                                           *
        *************************************************************


