                  Welcome to Q-Chem
     A Quantum Leap Into The Future Of Chemistry


 Q-Chem 5.2 (devel), Q-Chem, Inc., Pleasanton, CA (2019)

 Yihan Shao,  Zhengting Gan,  E. Epifanovsky,  A. T. B. Gilbert,  M. Wormit,  
 J. Kussmann,  A. W. Lange,  A. Behn,  Jia Deng,  Xintian Feng,  D. Ghosh,  
 M. Goldey,  P. R. Horn,  L. D. Jacobson,  I. Kaliman,  T. Kus,  A. Landau,  
 Jie Liu,  E. I. Proynov,  R. M. Richard,  R. P. Steele,  E. J. Sundstrom,  
 H. L. Woodcock III,  P. M. Zimmerman,  D. Zuev,  B. Alam,  B. Albrecht,  
 E. Alguire,  S. A. Baeppler,  D. Barton,  Z. Benda,  Y. A. Bernard,  
 E. J. Berquist,  K. B. Bravaya,  H. Burton,  K. Carter-Fenk,  D. Casanova,  
 Chun-Min Chang,  Yunqing Chen,  A. Chien,  K. D. Closser,  M. P. Coons,  
 S. Coriani,  S. Dasgupta,  A. L. Dempwolff,  M. Diedenhofen,  Hainam Do,  
 R. G. Edgar,  Po-Tung Fang,  S. Faraji,  S. Fatehi,  Qingguo Feng,  
 J. Fosso-Tande,  J. Gayvert,  Qinghui Ge,  A. Ghysels,  G. Gidofalvi,  
 J. Gomes,  J. Gonthier,  A. Gunina,  D. Hait,  M. W. D. Hanson-Heine,  
 P. H. P. Harbach,  A. W. Hauser,  M. F. Herbst,  J. E. Herr,  
 E. G. Hohenstein,  Z. C. Holden,  Kerwin Hui,  B. C. Huynh,  T.-C. Jagau,  
 Hyunjun Ji,  B. Kaduk,  K. Khistyaev,  Jaehoon Kim,  P. Klunzinger,  K. Koh,  
 D. Kosenkov,  L. Koulias,  T. Kowalczyk,  C. M. Krauter,  A. Kunitsa,  
 Ka Un Lao,  A. Laurent,  K. V. Lawler,  Joonho Lee,  D. Lefrancois,  
 S. Lehtola,  D. S. Levine,  Yi-Pei Li,  You-Sheng Lin,  Fenglai Liu,  
 Kuan-Yu Liu,  E. Livshits,  M. Loipersberger,  A. Luenser,  P. Manohar,  
 E. Mansoor,  S. F. Manzer,  Shan-Ping Mao,  Yuezhi Mao,  N. Mardirossian,  
 A. V. Marenich,  T. Markovich,  L. A. Martinez-Martinez,  S. A. Maurer,  
 N. J. Mayhall,  S. C. McKenzie,  J.-M. Mewes,  P. Morgante,  A. F. Morrison,  
 J. W. Mullinax,  K. Nanda,  T. S. Nguyen-Beck,  R. Olivares-Amaya,  
 J. A. Parkhill,  S. K. Paul,  Zheng Pei,  T. M. Perrine,  F. Plasser,  
 P. Pokhilko,  S. Prager,  A. Prociuk,  E. Ramos,  B. Rana,  D. R. Rehn,  
 F. Rob,  M. Scheurer,  M. Schneider,  N. Sergueev,  S. M. Sharada,  
 S. Sharma,  D. W. Small,  T. Stauch,  C. J. Stein,  T. Stein,  Yu-Chuan Su,  
 S. P. Veccham,  A. J. W. Thom,  A. Tkatchenko,  T. Tsuchimochi,  
 N. M. Tubman,  L. Vogt,  M. L. Vidal,  O. Vydrov,  M. A. Watson,  J. Wenzel,  
 M. de Wergifosse,  T. A. Wesolowski,  A. White,  J. Witte,  A. Yamada,  
 Jun Yang,  K. Yao,  S. Yeganeh,  S. R. Yost,  Zhi-Qiang You,  A. Zech,  
 Igor Ying Zhang,  Xing Zhang,  Yan Zhao,  Ying Zhu,  B. R. Brooks,  
 G. K. L. Chan,  C. J. Cramer,  M. S. Gordon,  W. J. Hehre,  A. Klamt,  
 M. W. Schmidt,  C. D. Sherrill,  D. G. Truhlar,  A. Aspuru-Guzik,  R. Baer,  
 A. T. Bell,  N. A. Besley,  Jeng-Da Chai,  A. E. DePrince, III,  
 R. A. DiStasio Jr.,  A. Dreuw,  B. D. Dunietz,  T. R. Furlani,  
 Chao-Ping Hsu,  Yousung Jung,  Jing Kong,  D. S. Lambrecht,  WanZhen Liang,  
 C. Ochsenfeld,  V. A. Rassolov,  L. V. Slipchenko,  J. E. Subotnik,  
 T. Van Voorhis,  J. M. Herbert,  A. I. Krylov,  P. M. W. Gill,  M. Head-Gordon

 Contributors to earlier versions of Q-Chem not listed above: 
 R. D. Adamson,  B. Austin,  J. Baker,  G. J. O. Beran,  K. Brandhorst,  
 S. T. Brown,  E. F. C. Byrd,  A. K. Chakraborty,  C.-L. Cheng,  
 Siu Hung Chien,  D. M. Chipman,  D. L. Crittenden,  H. Dachsel,  
 R. J. Doerksen,  A. D. Dutoi,  L. Fusti-Molnar,  W. A. Goddard III,  
 A. Golubeva-Zadorozhnaya,  S. R. Gwaltney,  G. Hawkins,  A. Heyden,  
 S. Hirata,  G. Kedziora,  F. J. Keil,  C. Kelley,  Jihan Kim,  R. A. King,  
 R. Z. Khaliullin,  P. P. Korambath,  W. Kurlancheek,  A. M. Lee,  M. S. Lee,  
 S. V. Levchenko,  Ching Yeh Lin,  D. Liotard,  R. C. Lochan,  I. Lotan,  
 P. E. Maslen,  N. Nair,  D. P. O'Neill,  D. Neuhauser,  E. Neuscamman,  
 C. M. Oana,  R. Olson,  B. Peters,  R. Peverati,  P. A. Pieniazek,  
 Y. M. Rhee,  J. Ritchie,  M. A. Rohrdanz,  E. Rosta,  N. J. Russ,  
 H. F. Schaefer III,  N. E. Schultz,  N. Shenvi,  A. C. Simmonett,  A. Sodt,  
 D. Stuck,  K. S. Thanthiriwatte,  V. Vanovschi,  Tao Wang,  A. Warshel,  
 C. F. Williams,  Q. Wu,  X. Xu,  W. Zhang

 Please cite Q-Chem as follows:
 Y. Shao et al., Mol. Phys. 113, 184-215 (2015)
 DOI: 10.1080/00268976.2014.952696

 Q-Chem 5.2.2 for Intel X86 EM64T Linux

 Parts of Q-Chem use Armadillo 9.800.1 (Horizon Scraper).
 http://arma.sourceforge.net/

 Q-Chem begins on Sun Apr 12 07:10:48 2020  

Host: cn0821
0

     Scratch files written to /tmp/ypli/6721342.srvc1/qchem184937//
Warning:  Did not find "$end" marker in "$molecule" section

Checking the input file for inconsistencies... 	...done.

--------------------------------------------------------------
User input:
--------------------------------------------------------------
$rem
   JOBTYPE  sp
   EXCHANGE   omegaB97X-D
   BASIS   6-311+G(2df,2pd)
   max_scf_cycles   250
   geom_opt_max_cycles   1500
   basis2 6-31G*
   scf_algorithm rca_diis
   SYM_IGNORE  TRUE
   print_input   true
   geom_opt_dmax   80
   pop_mulliken false
   XC_GRID 000075000302
$end

$molecule
0 1
C       1.2214393543     0.0001192822     0.1774917444
C       -0.0000005912     0.0010340905     -0.6316634791
H       1.4749074814     -0.7813592398     0.9048156247
H       1.4708332341     0.7818158635     0.9058539292
H       2.2414067396     -0.0015259074     -0.2235320728
C       -1.2214405819     0.0001194853     0.1774921934
H       0.0000003950     -0.8769053594     -1.2774158034
H       -0.0000006799     0.8777698564     -1.2791345894
H       -1.4749055455     -0.7813589335     0.9048171855
H       -2.2414064637     -0.0015240808     -0.2235348134
H       -1.4708334026     0.7818156090     0.9058550998
--------------------------------------------------------------
 ----------------------------------------------------------------
             Standard Nuclear Orientation (Angstroms)
    I     Atom           X                Y                Z
 ----------------------------------------------------------------
    1      C       1.2214393543     0.0001192822     0.1774917444
    2      C      -0.0000005912     0.0010340905    -0.6316634791
    3      H       1.4749074814    -0.7813592398     0.9048156247
    4      H       1.4708332341     0.7818158635     0.9058539292
    5      H       2.2414067396    -0.0015259074    -0.2235320728
    6      C      -1.2214405819     0.0001194853     0.1774921934
    7      H       0.0000003950    -0.8769053594    -1.2774158034
    8      H      -0.0000006799     0.8777698564    -1.2791345894
    9      H      -1.4749055455    -0.7813589335     0.9048171855
   10      H      -2.2414064637    -0.0015240808    -0.2235348134
   11      H      -1.4708334026     0.7818156090     0.9058550998
 ----------------------------------------------------------------
 Nuclear Repulsion Energy =          83.59600095 hartrees
 There are       13 alpha and       13 beta electrons
 Requested basis set is 6-311+G(2df,2pd)
 There are 72 shells and 214 basis functions

 Total QAlloc Memory Limit   2000 MB
 Mega-Array Size       188 MB
 MEM_STATIC part       192 MB

                       Distance Matrix (Angstroms)
             C (  1)   C (  2)   H (  3)   H (  4)   H (  5)   C (  6)
   C (  2)  1.465145
   H (  3)  1.097249  2.268978
   H (  4)  1.097159  2.266480  1.563181
   H (  5)  1.095973  2.278264  1.571251  1.575729
   C (  6)  2.442880  1.465145  2.900000  2.896532  3.485991
   H (  7)  2.092329  1.089850  2.635643  3.111490  2.626949  2.092331
   H (  8)  2.093788  1.089901  3.114113  2.635666  2.628947  2.093788
   H (  9)  2.899998  2.268977  2.949813  3.334800  3.961349  1.097249
   H ( 10)  3.485990  2.278262  3.961352  3.958518  4.482813  1.095973
   H ( 11)  2.896532  2.266480  3.334802  2.941667  3.958518  1.097159
             H (  7)   H (  8)   H (  9)   H ( 10)
   H (  8)  1.754676
   H (  9)  2.635644  3.114113
   H ( 10)  2.626949  2.628944  1.571256
   H ( 11)  3.111491  2.635666  1.563180  1.575730
 
 A cutoff of  1.0D-09 yielded   2512 shell pairs
 There are     22428 function pairs (     27593 Cartesian)
 Smallest overlap matrix eigenvalue = 7.99E-05

 Scale SEOQF with 1.000000e-01/1.000000e-01/1.000000e-01

 Standard Electronic Orientation quadrupole field applied
 Nucleus-field energy     =     0.0000000006 hartrees
 Requested basis set is 6-31G(d)
 There are 28 shells and 58 basis functions
 A cutoff of  1.0D-09 yielded    402 shell pairs
 There are      1773 function pairs (      1968 Cartesian)
 Smallest overlap matrix eigenvalue = 7.07E-03
 Guess from superposition of atomic densities
 Warning:  Energy on first SCF cycle will be non-variational
 SAD guess density has 26.000000 electrons
 Long-range K will be added via erf
 Coulomb attenuation parameter = 0.2 bohr**(-1)
 A restricted hybrid HF-DFT SCF calculation will be
 performed using Relaxed Constraint Minimization + Pulay DIIS
 Exchange:     0.2220 Hartree-Fock + 1.0000 wB97X-D + LR-HF
 Correlation:  1.0000 wB97X-D
 Using Euler-Maclaurin-Lebedev (75,302) quadrature formula
 Dispersion:   Grimme D
 SCF converges when DIIS error is below 1.0E-04
 using 3 threads for integral computing
 -------------------------------------------------------
 OpenMP Integral computing Module                
 Release: version 1.0, May 2013, Q-Chem Inc. Pittsburgh 
 -------------------------------------------------------
 using 3 threads for integral computing
 -------------------------------------------------------
 OpenMP Integral computing Module                
 Release: version 1.0, May 2013, Q-Chem Inc. Pittsburgh 
 -------------------------------------------------------
 ---------------------------------------
  Cycle       Energy         DIIS Error
 ---------------------------------------
    1    -119.7811493979      1.05E-01
    2    -119.0122160121      9.44E-03
    3    -119.0342764288      2.33E-03
    4    -119.0510622845      1.55E-03
    5    -119.0516318824      1.97E-04 Done RCA. Switching to DIIS
    6    -119.0521073500      1.37E-04
    7    -119.0521158556      5.05E-06 Convergence criterion met
 ---------------------------------------
 SCF time:  CPU 32.89 s  wall 11.38 s
 SCF   energy in the small basis set = -119.05211586
 Total energy in the small basis set = -119.05211586
 ----------------------------------------------------
  Cycle       Energy    
 ----------------------------------------------------
    1     -16.5643184215     -1.66E+01
 Long-range K will be added via erf
 Coulomb attenuation parameter = 0.2 bohr**(-1)
 A restricted hybrid HF-DFT SCF calculation will be
 performed using Relaxed Constraint Minimization + Pulay DIIS
 Exchange:     0.2220 Hartree-Fock + 1.0000 wB97X-D + LR-HF
 Correlation:  1.0000 wB97X-D
 Using Euler-Maclaurin-Lebedev (75,302) quadrature formula
 Dispersion:   Grimme D
 SCF converges when DIIS error is below 1.0E-05
 Basis2 calculation detected. Using small basis as guess for larger.
 SCFMinFind is unable to tell whether the solution found is close.
 Resetting ReadMinima to 0 and attempting to follow guess.
 SCFMinFind following SCF Guess.
 using 3 threads for integral computing
 -------------------------------------------------------
 OpenMP Integral computing Module                
 Release: version 1.0, May 2013, Q-Chem Inc. Pittsburgh 
 -------------------------------------------------------
 using 3 threads for integral computing
 -------------------------------------------------------
 OpenMP Integral computing Module                
 Release: version 1.0, May 2013, Q-Chem Inc. Pittsburgh 
 -------------------------------------------------------
 ---------------------------------------
  Cycle       Energy         DIIS Error
 ---------------------------------------
    1    -119.0749821245      4.20E-03
    2    -119.0968045950      5.91E-04 Done RCA. Switching to DIIS
    3    -119.0975349299      4.28E-04
    4    -119.0985297289      5.49E-05
    5    -119.0985497231      1.11E-05
    6    -119.0985505947      4.15E-06 Convergence criterion met
 ---------------------------------------
 SCF time:  CPU 95.19 s  wall 32.20 s
 SCF   energy in the final basis set = -119.09855059
 Total energy in the final basis set = -119.09855059
 
 --------------------------------------------------------------
 
                    Orbital Energies (a.u.)
 --------------------------------------------------------------
 
 Alpha MOs
 -- Occupied --
-10.2836 -10.2636 -10.2636  -0.8957  -0.7905  -0.7068  -0.5421  -0.5322
 -0.5114  -0.4350  -0.4165  -0.4160  -0.3918
 -- Virtual --
  0.0649   0.0791   0.0900   0.1032   0.1266   0.1276   0.1368   0.1409
  0.1497   0.1709   0.1734   0.1972   0.2297   0.2321   0.2332   0.2728
  0.2786   0.2837   0.2967   0.3208   0.3309   0.3855   0.4533   0.4676
  0.4861   0.5132   0.5164   0.5440   0.5679   0.5761   0.5771   0.5842
  0.6390   0.6392   0.6572   0.6575   0.6615   0.6619   0.7127   0.7244
  0.7259   0.7717   0.8199   0.8236   0.8370   0.8855   0.9045   1.0066
  1.0199   1.0423   1.0459   1.0983   1.1059   1.1842   1.2323   1.2365
  1.2619   1.2731   1.2735   1.2941   1.3058   1.3111   1.3406   1.3512
  1.3643   1.4200   1.4450   1.4576   1.4660   1.4906   1.5190   1.5227
  1.5419   1.5853   1.6054   1.6442   1.6470   1.7123   1.7375   1.7861
  1.8357   2.4057   2.4118   2.4471   2.4602   2.5286   2.5318   2.5867
  2.5932   2.7295   2.7732   2.7919   2.8053   2.8148   2.8534   2.9089
  2.9250   2.9412   2.9682   3.0754   3.0882   3.1142   3.1488   3.1527
  3.1559   3.1583   3.1872   3.1881   3.2002   3.2151   3.2275   3.2821
  3.3001   3.3794   3.4171   3.4500   3.4654   3.4722   3.4824   3.4936
  3.5298   3.5353   3.5418   3.5444   3.5690   3.5740   3.5826   3.5916
  3.5963   3.6092   3.6261   3.6733   3.7106   3.7222   3.7655   3.7978
  3.8716   3.8767   3.9144   3.9153   3.9288   4.0355   4.0617   4.0765
  4.1032   4.1314   4.2014   4.2023   4.2294   4.2595   4.2686   4.2769
  4.2872   4.3422   4.3883   4.3951   4.4019   4.4409   4.4611   4.4629
  4.4737   4.5563   4.6074   4.6158   4.6290   4.6707   4.7125   4.7913
  4.9174   4.9269   4.9670   4.9903   5.0233   5.0469   5.0502   5.0625
  5.1748   5.2021   5.2022   5.2214   5.3910   5.4375   5.4975   5.5183
  5.5347   5.5764   5.6170   5.6948   5.7146   5.7474   5.7788   5.9590
  6.0743   6.4297   6.4505   6.4516   6.5141   6.5310  25.2793  25.4557
 25.4695
 --------------------------------------------------------------
 
 -----------------------------------------------------------------
                    Cartesian Multipole Moments
 -----------------------------------------------------------------
    Charge (ESU x 10^10)
                -0.0000
    Dipole Moment (Debye)
         X       0.0000      Y      -0.0035      Z       0.0468
       Tot       0.0469
    Quadrupole Moments (Debye-Ang)
        XX     -20.6694     XY      -0.0000     YY     -22.2487
        XZ       0.0000     YZ       0.0019     ZZ     -21.6582
    Octopole Moments (Debye-Ang^2)
       XXX       0.0000    XXY      -0.0603    XYY       0.0000
       YYY      -0.0160    XXZ       3.6720    XYZ       0.0000
       YYZ       0.2612    XZZ      -0.0000    YZZ       0.0058
       ZZZ       2.2441
    Hexadecapole Moments (Debye-Ang^3)
      XXXX    -195.1260   XXXY      -0.0000   XXYY     -43.5819
      XYYY       0.0000   YYYY     -43.6879   XXXZ       0.0001
      XXYZ      -0.0052   XYYZ      -0.0000   YYYZ       0.0127
      XXZZ     -44.8357   XYZZ       0.0000   YYZZ     -16.9992
      XZZZ      -0.0000   YZZZ       0.0054   ZZZZ     -70.6155
 -----------------------------------------------------------------
Archival summary:
1\1\cn0821\SP\ProcedureUnspecified\BasisUnspecified\38\r0852400\SunApr1207:11:352020SunApr1207:11:352020\0\\#,ProcedureUnspecified,BasisUnspecified,\\0,1\C\H,1,1.08985\H,1,1.0899,2,107.218\C,1,1.46514,2,109.07,3,-118.106,0\H,4,1.09597,1,125.014,2,58.4104,0\H,4,1.09716,1,123.758,2,179.467,0\H,4,1.09725,1,123.994,2,-62.3494,0\C,1,1.46514,2,109.07,3,118.106,0\H,8,1.09597,1,125.014,2,-58.4105,0\H,8,1.09716,1,123.758,2,-179.467,0\H,8,1.09725,1,123.994,2,62.3495,0\\\@

 Total job time:  47.78s(wall), 133.15s(cpu) 
 Sun Apr 12 07:11:35 2020

        *************************************************************
        *                                                           *
        *  Thank you very much for using Q-Chem.  Have a nice day.  *
        *                                                           *
        *************************************************************


