                  Welcome to Q-Chem
     A Quantum Leap Into The Future Of Chemistry


 Q-Chem 5.2 (devel), Q-Chem, Inc., Pleasanton, CA (2019)

 Yihan Shao,  Zhengting Gan,  E. Epifanovsky,  A. T. B. Gilbert,  M. Wormit,  
 J. Kussmann,  A. W. Lange,  A. Behn,  Jia Deng,  Xintian Feng,  D. Ghosh,  
 M. Goldey,  P. R. Horn,  L. D. Jacobson,  I. Kaliman,  T. Kus,  A. Landau,  
 Jie Liu,  E. I. Proynov,  R. M. Richard,  R. P. Steele,  E. J. Sundstrom,  
 H. L. Woodcock III,  P. M. Zimmerman,  D. Zuev,  B. Alam,  B. Albrecht,  
 E. Alguire,  S. A. Baeppler,  D. Barton,  Z. Benda,  Y. A. Bernard,  
 E. J. Berquist,  K. B. Bravaya,  H. Burton,  K. Carter-Fenk,  D. Casanova,  
 Chun-Min Chang,  Yunqing Chen,  A. Chien,  K. D. Closser,  M. P. Coons,  
 S. Coriani,  S. Dasgupta,  A. L. Dempwolff,  M. Diedenhofen,  Hainam Do,  
 R. G. Edgar,  Po-Tung Fang,  S. Faraji,  S. Fatehi,  Qingguo Feng,  
 J. Fosso-Tande,  J. Gayvert,  Qinghui Ge,  A. Ghysels,  G. Gidofalvi,  
 J. Gomes,  J. Gonthier,  A. Gunina,  D. Hait,  M. W. D. Hanson-Heine,  
 P. H. P. Harbach,  A. W. Hauser,  M. F. Herbst,  J. E. Herr,  
 E. G. Hohenstein,  Z. C. Holden,  Kerwin Hui,  B. C. Huynh,  T.-C. Jagau,  
 Hyunjun Ji,  B. Kaduk,  K. Khistyaev,  Jaehoon Kim,  P. Klunzinger,  K. Koh,  
 D. Kosenkov,  L. Koulias,  T. Kowalczyk,  C. M. Krauter,  A. Kunitsa,  
 Ka Un Lao,  A. Laurent,  K. V. Lawler,  Joonho Lee,  D. Lefrancois,  
 S. Lehtola,  D. S. Levine,  Yi-Pei Li,  You-Sheng Lin,  Fenglai Liu,  
 Kuan-Yu Liu,  E. Livshits,  M. Loipersberger,  A. Luenser,  P. Manohar,  
 E. Mansoor,  S. F. Manzer,  Shan-Ping Mao,  Yuezhi Mao,  N. Mardirossian,  
 A. V. Marenich,  T. Markovich,  L. A. Martinez-Martinez,  S. A. Maurer,  
 N. J. Mayhall,  S. C. McKenzie,  J.-M. Mewes,  P. Morgante,  A. F. Morrison,  
 J. W. Mullinax,  K. Nanda,  T. S. Nguyen-Beck,  R. Olivares-Amaya,  
 J. A. Parkhill,  S. K. Paul,  Zheng Pei,  T. M. Perrine,  F. Plasser,  
 P. Pokhilko,  S. Prager,  A. Prociuk,  E. Ramos,  B. Rana,  D. R. Rehn,  
 F. Rob,  M. Scheurer,  M. Schneider,  N. Sergueev,  S. M. Sharada,  
 S. Sharma,  D. W. Small,  T. Stauch,  C. J. Stein,  T. Stein,  Yu-Chuan Su,  
 S. P. Veccham,  A. J. W. Thom,  A. Tkatchenko,  T. Tsuchimochi,  
 N. M. Tubman,  L. Vogt,  M. L. Vidal,  O. Vydrov,  M. A. Watson,  J. Wenzel,  
 M. de Wergifosse,  T. A. Wesolowski,  A. White,  J. Witte,  A. Yamada,  
 Jun Yang,  K. Yao,  S. Yeganeh,  S. R. Yost,  Zhi-Qiang You,  A. Zech,  
 Igor Ying Zhang,  Xing Zhang,  Yan Zhao,  Ying Zhu,  B. R. Brooks,  
 G. K. L. Chan,  C. J. Cramer,  M. S. Gordon,  W. J. Hehre,  A. Klamt,  
 M. W. Schmidt,  C. D. Sherrill,  D. G. Truhlar,  A. Aspuru-Guzik,  R. Baer,  
 A. T. Bell,  N. A. Besley,  Jeng-Da Chai,  A. E. DePrince, III,  
 R. A. DiStasio Jr.,  A. Dreuw,  B. D. Dunietz,  T. R. Furlani,  
 Chao-Ping Hsu,  Yousung Jung,  Jing Kong,  D. S. Lambrecht,  WanZhen Liang,  
 C. Ochsenfeld,  V. A. Rassolov,  L. V. Slipchenko,  J. E. Subotnik,  
 T. Van Voorhis,  J. M. Herbert,  A. I. Krylov,  P. M. W. Gill,  M. Head-Gordon

 Contributors to earlier versions of Q-Chem not listed above: 
 R. D. Adamson,  B. Austin,  J. Baker,  G. J. O. Beran,  K. Brandhorst,  
 S. T. Brown,  E. F. C. Byrd,  A. K. Chakraborty,  C.-L. Cheng,  
 Siu Hung Chien,  D. M. Chipman,  D. L. Crittenden,  H. Dachsel,  
 R. J. Doerksen,  A. D. Dutoi,  L. Fusti-Molnar,  W. A. Goddard III,  
 A. Golubeva-Zadorozhnaya,  S. R. Gwaltney,  G. Hawkins,  A. Heyden,  
 S. Hirata,  G. Kedziora,  F. J. Keil,  C. Kelley,  Jihan Kim,  R. A. King,  
 R. Z. Khaliullin,  P. P. Korambath,  W. Kurlancheek,  A. M. Lee,  M. S. Lee,  
 S. V. Levchenko,  Ching Yeh Lin,  D. Liotard,  R. C. Lochan,  I. Lotan,  
 P. E. Maslen,  N. Nair,  D. P. O'Neill,  D. Neuhauser,  E. Neuscamman,  
 C. M. Oana,  R. Olson,  B. Peters,  R. Peverati,  P. A. Pieniazek,  
 Y. M. Rhee,  J. Ritchie,  M. A. Rohrdanz,  E. Rosta,  N. J. Russ,  
 H. F. Schaefer III,  N. E. Schultz,  N. Shenvi,  A. C. Simmonett,  A. Sodt,  
 D. Stuck,  K. S. Thanthiriwatte,  V. Vanovschi,  Tao Wang,  A. Warshel,  
 C. F. Williams,  Q. Wu,  X. Xu,  W. Zhang

 Please cite Q-Chem as follows:
 Y. Shao et al., Mol. Phys. 113, 184-215 (2015)
 DOI: 10.1080/00268976.2014.952696

 Q-Chem 5.2.2 for Intel X86 EM64T Linux

 Parts of Q-Chem use Armadillo 9.800.1 (Horizon Scraper).
 http://arma.sourceforge.net/

 Q-Chem begins on Sun Apr 12 07:28:34 2020  

Host: cn0821
0

     Scratch files written to /tmp/ypli/6721342.srvc1/qchem187578//
Warning:  Did not find "$end" marker in "$molecule" section

Checking the input file for inconsistencies... 	...done.

--------------------------------------------------------------
User input:
--------------------------------------------------------------
$rem
   JOBTYPE  sp
   EXCHANGE   omegaB97X-D
   BASIS   6-311+G(2df,2pd)
   max_scf_cycles   250
   geom_opt_max_cycles   1500
   basis2 6-31G*
   scf_algorithm rca_diis
   SYM_IGNORE  TRUE
   print_input   true
   geom_opt_dmax   80
   pop_mulliken false
   XC_GRID 000075000302
$end

$molecule
0 1
C       1.2619769628     0.0199517084     0.2719303071
C       -0.0000002727     0.0217426132     -0.5551316403
H       1.3320070987     -0.8227346743     0.9672894702
H       1.2253493389     0.8381013428     0.9937532453
H       2.1358995549     -0.0600939553     -0.3693598064
C       -1.2619775907     0.0199540276     0.2719298486
H       -0.0000009454     -0.6717665533     -1.4086543268
H       0.0000011781     0.6995819664     -1.4223970468
H       -1.3320160384     -0.8227322500     0.9672889056
H       -2.1358985012     -0.0601028848     -0.3693608985
H       -1.2253408456     0.8380993253     0.9937569610
--------------------------------------------------------------
 ----------------------------------------------------------------
             Standard Nuclear Orientation (Angstroms)
    I     Atom           X                Y                Z
 ----------------------------------------------------------------
    1      C       1.2619769628     0.0199517084     0.2719303071
    2      C      -0.0000002727     0.0217426132    -0.5551316403
    3      H       1.3320070987    -0.8227346743     0.9672894702
    4      H       1.2253493389     0.8381013428     0.9937532453
    5      H       2.1358995549    -0.0600939553    -0.3693598064
    6      C      -1.2619775907     0.0199540276     0.2719298486
    7      H      -0.0000009454    -0.6717665533    -1.4086543268
    8      H       0.0000011781     0.6995819664    -1.4223970468
    9      H      -1.3320160384    -0.8227322500     0.9672889056
   10      H      -2.1358985012    -0.0601028848    -0.3693608985
   11      H      -1.2253408456     0.8380993253     0.9937569610
 ----------------------------------------------------------------
 Nuclear Repulsion Energy =          82.97467048 hartrees
 There are       13 alpha and       13 beta electrons
 Requested basis set is 6-311+G(2df,2pd)
 There are 72 shells and 214 basis functions

 Total QAlloc Memory Limit   2000 MB
 Mega-Array Size       188 MB
 MEM_STATIC part       192 MB

                       Distance Matrix (Angstroms)
             C (  1)   C (  2)   H (  3)   H (  4)   H (  5)   C (  6)
   C (  2)  1.508848
   H (  3)  1.094783  2.192066
   H (  4)  1.091668  2.137046  1.664468
   H (  5)  1.086923  2.145525  1.736230  1.869207
   C (  6)  2.523955  1.508847  2.814677  2.716098  3.458790
   H (  7)  2.212561  1.099753  2.728030  3.090752  2.452824  2.212561
   H (  8)  2.219285  1.100734  3.130861  2.712646  2.499611  2.219286
   H (  9)  2.814683  2.192069  2.664023  3.049457  3.794033  1.094783
   H ( 10)  3.458789  2.145523  3.794023  3.736688  4.271798  1.086923
   H ( 11)  2.716091  2.137043  3.049442  2.450690  3.736680  1.091668
             H (  7)   H (  8)   H (  9)   H ( 10)
   H (  8)  1.371417
   H (  9)  2.728032  3.130864
   H ( 10)  2.452819  2.499615  1.736221
   H ( 11)  3.090750  2.712646  1.664464  1.869217
 
 A cutoff of  1.0D-09 yielded   2536 shell pairs
 There are     22594 function pairs (     27781 Cartesian)
 Smallest overlap matrix eigenvalue = 9.88E-05

 Scale SEOQF with 1.000000e-01/1.000000e-01/1.000000e-01

 Standard Electronic Orientation quadrupole field applied
 Nucleus-field energy     =     0.0000000003 hartrees
 Requested basis set is 6-31G(d)
 There are 28 shells and 58 basis functions
 A cutoff of  1.0D-09 yielded    402 shell pairs
 There are      1773 function pairs (      1968 Cartesian)
 Smallest overlap matrix eigenvalue = 7.22E-03
 Guess from superposition of atomic densities
 Warning:  Energy on first SCF cycle will be non-variational
 SAD guess density has 26.000000 electrons
 Long-range K will be added via erf
 Coulomb attenuation parameter = 0.2 bohr**(-1)
 A restricted hybrid HF-DFT SCF calculation will be
 performed using Relaxed Constraint Minimization + Pulay DIIS
 Exchange:     0.2220 Hartree-Fock + 1.0000 wB97X-D + LR-HF
 Correlation:  1.0000 wB97X-D
 Using Euler-Maclaurin-Lebedev (75,302) quadrature formula
 Dispersion:   Grimme D
 SCF converges when DIIS error is below 1.0E-04
 using 3 threads for integral computing
 -------------------------------------------------------
 OpenMP Integral computing Module                
 Release: version 1.0, May 2013, Q-Chem Inc. Pittsburgh 
 -------------------------------------------------------
 using 3 threads for integral computing
 -------------------------------------------------------
 OpenMP Integral computing Module                
 Release: version 1.0, May 2013, Q-Chem Inc. Pittsburgh 
 -------------------------------------------------------
 ---------------------------------------
  Cycle       Energy         DIIS Error
 ---------------------------------------
    1    -119.6648848759      1.02E-01
    2    -119.0306431114      9.23E-03
    3    -119.0526577632      2.45E-03
    4    -119.0680804832      1.67E-03
    5    -119.0687606173      2.41E-04 Done RCA. Switching to DIIS
    6    -119.0692925992      1.77E-04
    7    -119.0693064800      6.68E-06 Convergence criterion met
 ---------------------------------------
 SCF time:  CPU 31.87 s  wall 10.95 s
 SCF   energy in the small basis set = -119.06930648
 Total energy in the small basis set = -119.06930648
 ----------------------------------------------------
  Cycle       Energy    
 ----------------------------------------------------
    1     -16.5386757980     -1.65E+01
 Long-range K will be added via erf
 Coulomb attenuation parameter = 0.2 bohr**(-1)
 A restricted hybrid HF-DFT SCF calculation will be
 performed using Relaxed Constraint Minimization + Pulay DIIS
 Exchange:     0.2220 Hartree-Fock + 1.0000 wB97X-D + LR-HF
 Correlation:  1.0000 wB97X-D
 Using Euler-Maclaurin-Lebedev (75,302) quadrature formula
 Dispersion:   Grimme D
 SCF converges when DIIS error is below 1.0E-05
 Basis2 calculation detected. Using small basis as guess for larger.
 SCFMinFind is unable to tell whether the solution found is close.
 Resetting ReadMinima to 0 and attempting to follow guess.
 SCFMinFind following SCF Guess.
 using 3 threads for integral computing
 -------------------------------------------------------
 OpenMP Integral computing Module                
 Release: version 1.0, May 2013, Q-Chem Inc. Pittsburgh 
 -------------------------------------------------------
 using 3 threads for integral computing
 -------------------------------------------------------
 OpenMP Integral computing Module                
 Release: version 1.0, May 2013, Q-Chem Inc. Pittsburgh 
 -------------------------------------------------------
 ---------------------------------------
  Cycle       Energy         DIIS Error
 ---------------------------------------
    1    -119.0906526846      4.21E-03
    2    -119.1124830574      6.13E-04 Done RCA. Switching to DIIS
    3    -119.1132827691      4.47E-04
    4    -119.1143806426      4.99E-05
    5    -119.1143976886      1.21E-05
    6    -119.1143986310      4.18E-06 Convergence criterion met
 ---------------------------------------
 SCF time:  CPU 98.40 s  wall 33.27 s
 SCF   energy in the final basis set = -119.11439863
 Total energy in the final basis set = -119.11439863
 
 --------------------------------------------------------------
 
                    Orbital Energies (a.u.)
 --------------------------------------------------------------
 
 Alpha MOs
 -- Occupied --
-10.2739 -10.2674 -10.2674  -0.8850  -0.7795  -0.6983  -0.5438  -0.5117
 -0.5008  -0.4560  -0.4527  -0.4149  -0.3633
 -- Virtual --
  0.0663   0.0846   0.0857   0.1038   0.1219   0.1255   0.1361   0.1455
  0.1502   0.1690   0.1733   0.1951   0.2174   0.2379   0.2382   0.2508
  0.2834   0.2858   0.3089   0.3136   0.3334   0.3557   0.4572   0.4701
  0.4757   0.5133   0.5134   0.5282   0.5409   0.5794   0.5807   0.5846
  0.6156   0.6197   0.6284   0.6502   0.6830   0.6895   0.7043   0.7180
  0.7224   0.7665   0.7923   0.8613   0.8735   0.8923   0.9133   0.9357
  0.9959   1.0495   1.0889   1.1086   1.1279   1.1838   1.2024   1.2221
  1.2241   1.2375   1.2428   1.2440   1.3087   1.3339   1.3515   1.3635
  1.3803   1.3915   1.4084   1.4294   1.4534   1.4845   1.4848   1.5156
  1.5174   1.5718   1.5902   1.6156   1.6267   1.6444   1.6900   1.7317
  1.8235   2.3781   2.4640   2.4693   2.4913   2.5723   2.6034   2.6400
  2.6462   2.7431   2.7712   2.7927   2.8228   2.8900   2.9062   2.9253
  2.9325   2.9671   2.9755   3.0015   3.0245   3.0747   3.0778   3.1104
  3.1204   3.1437   3.1613   3.2070   3.2153   3.2388   3.2696   3.2947
  3.3047   3.3400   3.3571   3.3584   3.3793   3.4191   3.4479   3.4628
  3.4803   3.5082   3.5441   3.5560   3.5636   3.5740   3.6047   3.6052
  3.6214   3.6300   3.6546   3.6577   3.7233   3.7848   3.8298   3.8354
  3.8941   3.9281   3.9380   3.9486   3.9995   4.0223   4.0276   4.0329
  4.1021   4.1040   4.1125   4.1361   4.1644   4.1812   4.1828   4.2401
  4.2451   4.3194   4.3231   4.3501   4.3799   4.3875   4.4228   4.4674
  4.4779   4.5254   4.5385   4.5758   4.6728   4.8044   4.8118   4.8327
  4.8556   4.9097   4.9561   4.9713   4.9877   5.0232   5.0929   5.1771
  5.2211   5.2264   5.2696   5.2991   5.3001   5.3413   5.3779   5.4291
  5.4365   5.4700   5.5110   5.5337   5.6229   5.6361   5.7474   5.8250
  6.0414   6.3130   6.3850   6.4162   6.4303   6.4381  25.1779  25.4369
 25.4660
 --------------------------------------------------------------
 
 -----------------------------------------------------------------
                    Cartesian Multipole Moments
 -----------------------------------------------------------------
    Charge (ESU x 10^10)
                 0.0000
    Dipole Moment (Debye)
         X       0.0000      Y      -0.1090      Z      -0.1722
       Tot       0.2038
    Quadrupole Moments (Debye-Ang)
        XX     -22.1312     XY       0.0000     YY     -22.8246
        XZ      -0.0000     YZ       0.1490     ZZ     -20.3133
    Octopole Moments (Debye-Ang^2)
       XXX       0.0000    XXY      -1.7312    XYY       0.0000
       YYY      -0.9429    XXZ      -1.9472    XYZ      -0.0000
       YYZ       1.0606    XZZ      -0.0000    YZZ      -0.0878
       ZZZ      -2.4727
    Hexadecapole Moments (Debye-Ang^3)
      XXXX    -199.0332   XXXY       0.0002   XXYY     -42.1930
      XYYY       0.0000   YYYY     -43.8557   XXXZ      -0.0000
      XXYZ      -0.0604   XYYZ       0.0000   YYYZ       0.0360
      XXZZ     -44.6064   XYZZ       0.0000   YYZZ     -18.7020
      XZZZ      -0.0000   YZZZ       0.0463   ZZZZ     -71.8558
 -----------------------------------------------------------------
Archival summary:
1\1\cn0821\SP\ProcedureUnspecified\BasisUnspecified\38\r0852400\SunApr1207:29:232020SunApr1207:29:232020\0\\#,ProcedureUnspecified,BasisUnspecified,\\0,1\C\H,1,1.09975\H,1,1.10073,2,77.1053\C,1,1.50885,2,115.13,3,112.508,0\H,4,1.08692,1,110.436,2,-39.711,0\H,4,1.09167,1,109.48,2,-171.504,0\H,4,1.09478,1,113.739,2,78.6282,0\C,1,1.50885,2,115.13,3,-112.508,0\H,8,1.08692,1,110.436,2,39.7118,0\H,8,1.09167,1,109.48,2,171.503,0\H,8,1.09478,1,113.739,2,-78.6284,0\\\@

 Total job time:  48.28s(wall), 135.29s(cpu) 
 Sun Apr 12 07:29:23 2020

        *************************************************************
        *                                                           *
        *  Thank you very much for using Q-Chem.  Have a nice day.  *
        *                                                           *
        *************************************************************


