                  Welcome to Q-Chem
     A Quantum Leap Into The Future Of Chemistry


 Q-Chem 5.2 (devel), Q-Chem, Inc., Pleasanton, CA (2019)

 Yihan Shao,  Zhengting Gan,  E. Epifanovsky,  A. T. B. Gilbert,  M. Wormit,  
 J. Kussmann,  A. W. Lange,  A. Behn,  Jia Deng,  Xintian Feng,  D. Ghosh,  
 M. Goldey,  P. R. Horn,  L. D. Jacobson,  I. Kaliman,  T. Kus,  A. Landau,  
 Jie Liu,  E. I. Proynov,  R. M. Richard,  R. P. Steele,  E. J. Sundstrom,  
 H. L. Woodcock III,  P. M. Zimmerman,  D. Zuev,  B. Alam,  B. Albrecht,  
 E. Alguire,  S. A. Baeppler,  D. Barton,  Z. Benda,  Y. A. Bernard,  
 E. J. Berquist,  K. B. Bravaya,  H. Burton,  K. Carter-Fenk,  D. Casanova,  
 Chun-Min Chang,  Yunqing Chen,  A. Chien,  K. D. Closser,  M. P. Coons,  
 S. Coriani,  S. Dasgupta,  A. L. Dempwolff,  M. Diedenhofen,  Hainam Do,  
 R. G. Edgar,  Po-Tung Fang,  S. Faraji,  S. Fatehi,  Qingguo Feng,  
 J. Fosso-Tande,  J. Gayvert,  Qinghui Ge,  A. Ghysels,  G. Gidofalvi,  
 J. Gomes,  J. Gonthier,  A. Gunina,  D. Hait,  M. W. D. Hanson-Heine,  
 P. H. P. Harbach,  A. W. Hauser,  M. F. Herbst,  J. E. Herr,  
 E. G. Hohenstein,  Z. C. Holden,  Kerwin Hui,  B. C. Huynh,  T.-C. Jagau,  
 Hyunjun Ji,  B. Kaduk,  K. Khistyaev,  Jaehoon Kim,  P. Klunzinger,  K. Koh,  
 D. Kosenkov,  L. Koulias,  T. Kowalczyk,  C. M. Krauter,  A. Kunitsa,  
 Ka Un Lao,  A. Laurent,  K. V. Lawler,  Joonho Lee,  D. Lefrancois,  
 S. Lehtola,  D. S. Levine,  Yi-Pei Li,  You-Sheng Lin,  Fenglai Liu,  
 Kuan-Yu Liu,  E. Livshits,  M. Loipersberger,  A. Luenser,  P. Manohar,  
 E. Mansoor,  S. F. Manzer,  Shan-Ping Mao,  Yuezhi Mao,  N. Mardirossian,  
 A. V. Marenich,  T. Markovich,  L. A. Martinez-Martinez,  S. A. Maurer,  
 N. J. Mayhall,  S. C. McKenzie,  J.-M. Mewes,  P. Morgante,  A. F. Morrison,  
 J. W. Mullinax,  K. Nanda,  T. S. Nguyen-Beck,  R. Olivares-Amaya,  
 J. A. Parkhill,  S. K. Paul,  Zheng Pei,  T. M. Perrine,  F. Plasser,  
 P. Pokhilko,  S. Prager,  A. Prociuk,  E. Ramos,  B. Rana,  D. R. Rehn,  
 F. Rob,  M. Scheurer,  M. Schneider,  N. Sergueev,  S. M. Sharada,  
 S. Sharma,  D. W. Small,  T. Stauch,  C. J. Stein,  T. Stein,  Yu-Chuan Su,  
 S. P. Veccham,  A. J. W. Thom,  A. Tkatchenko,  T. Tsuchimochi,  
 N. M. Tubman,  L. Vogt,  M. L. Vidal,  O. Vydrov,  M. A. Watson,  J. Wenzel,  
 M. de Wergifosse,  T. A. Wesolowski,  A. White,  J. Witte,  A. Yamada,  
 Jun Yang,  K. Yao,  S. Yeganeh,  S. R. Yost,  Zhi-Qiang You,  A. Zech,  
 Igor Ying Zhang,  Xing Zhang,  Yan Zhao,  Ying Zhu,  B. R. Brooks,  
 G. K. L. Chan,  C. J. Cramer,  M. S. Gordon,  W. J. Hehre,  A. Klamt,  
 M. W. Schmidt,  C. D. Sherrill,  D. G. Truhlar,  A. Aspuru-Guzik,  R. Baer,  
 A. T. Bell,  N. A. Besley,  Jeng-Da Chai,  A. E. DePrince, III,  
 R. A. DiStasio Jr.,  A. Dreuw,  B. D. Dunietz,  T. R. Furlani,  
 Chao-Ping Hsu,  Yousung Jung,  Jing Kong,  D. S. Lambrecht,  WanZhen Liang,  
 C. Ochsenfeld,  V. A. Rassolov,  L. V. Slipchenko,  J. E. Subotnik,  
 T. Van Voorhis,  J. M. Herbert,  A. I. Krylov,  P. M. W. Gill,  M. Head-Gordon

 Contributors to earlier versions of Q-Chem not listed above: 
 R. D. Adamson,  B. Austin,  J. Baker,  G. J. O. Beran,  K. Brandhorst,  
 S. T. Brown,  E. F. C. Byrd,  A. K. Chakraborty,  C.-L. Cheng,  
 Siu Hung Chien,  D. M. Chipman,  D. L. Crittenden,  H. Dachsel,  
 R. J. Doerksen,  A. D. Dutoi,  L. Fusti-Molnar,  W. A. Goddard III,  
 A. Golubeva-Zadorozhnaya,  S. R. Gwaltney,  G. Hawkins,  A. Heyden,  
 S. Hirata,  G. Kedziora,  F. J. Keil,  C. Kelley,  Jihan Kim,  R. A. King,  
 R. Z. Khaliullin,  P. P. Korambath,  W. Kurlancheek,  A. M. Lee,  M. S. Lee,  
 S. V. Levchenko,  Ching Yeh Lin,  D. Liotard,  R. C. Lochan,  I. Lotan,  
 P. E. Maslen,  N. Nair,  D. P. O'Neill,  D. Neuhauser,  E. Neuscamman,  
 C. M. Oana,  R. Olson,  B. Peters,  R. Peverati,  P. A. Pieniazek,  
 Y. M. Rhee,  J. Ritchie,  M. A. Rohrdanz,  E. Rosta,  N. J. Russ,  
 H. F. Schaefer III,  N. E. Schultz,  N. Shenvi,  A. C. Simmonett,  A. Sodt,  
 D. Stuck,  K. S. Thanthiriwatte,  V. Vanovschi,  Tao Wang,  A. Warshel,  
 C. F. Williams,  Q. Wu,  X. Xu,  W. Zhang

 Please cite Q-Chem as follows:
 Y. Shao et al., Mol. Phys. 113, 184-215 (2015)
 DOI: 10.1080/00268976.2014.952696

 Q-Chem 5.2.2 for Intel X86 EM64T Linux

 Parts of Q-Chem use Armadillo 9.800.1 (Horizon Scraper).
 http://arma.sourceforge.net/

 Q-Chem begins on Sun Apr 12 07:50:16 2020  

Host: cn0821
0

     Scratch files written to /tmp/ypli/6721342.srvc1/qchem190770//
Warning:  Did not find "$end" marker in "$molecule" section

Checking the input file for inconsistencies... 	...done.

--------------------------------------------------------------
User input:
--------------------------------------------------------------
$rem
   JOBTYPE  sp
   EXCHANGE   omegaB97X-D
   BASIS   6-311+G(2df,2pd)
   max_scf_cycles   250
   geom_opt_max_cycles   1500
   basis2 6-31G*
   scf_algorithm rca_diis
   SYM_IGNORE  TRUE
   print_input   true
   geom_opt_dmax   80
   pop_mulliken false
   XC_GRID 000075000302
$end

$molecule
0 1
C       1.2765898212     -0.0409464394     0.2167696005
C       -0.0000000040     -0.0240553823     -0.6277920169
H       1.1949487161     -0.7878145702     1.0097479075
H       1.3497285216     0.7568587449     0.9661929732
H       2.1141054311     0.1090884297     -0.4581379428
C       -1.2765896277     -0.0409456685     0.2167701666
H       -0.0000005035     -0.9229716779     -1.2489793722
H       0.0000002483     0.8726571259     -1.2513277771
H       -1.1949514193     -0.7878164203     1.0097464147
H       -2.1141058279     0.1090859365     -0.4581375147
H       -1.3497254165     0.7568605876     0.9661925801
--------------------------------------------------------------
 ----------------------------------------------------------------
             Standard Nuclear Orientation (Angstroms)
    I     Atom           X                Y                Z
 ----------------------------------------------------------------
    1      C       1.2765898212    -0.0409464394     0.2167696005
    2      C      -0.0000000040    -0.0240553823    -0.6277920169
    3      H       1.1949487161    -0.7878145702     1.0097479075
    4      H       1.3497285216     0.7568587449     0.9661929732
    5      H       2.1141054311     0.1090884297    -0.4581379428
    6      C      -1.2765896277    -0.0409456685     0.2167701666
    7      H      -0.0000005035    -0.9229716779    -1.2489793722
    8      H       0.0000002483     0.8726571259    -1.2513277771
    9      H      -1.1949514193    -0.7878164203     1.0097464147
   10      H      -2.1141058279     0.1090859365    -0.4581375147
   11      H      -1.3497254165     0.7568605876     0.9661925801
 ----------------------------------------------------------------
 Nuclear Repulsion Energy =          82.69132370 hartrees
 There are       13 alpha and       13 beta electrons
 Requested basis set is 6-311+G(2df,2pd)
 There are 72 shells and 214 basis functions

 Total QAlloc Memory Limit   2000 MB
 Mega-Array Size       188 MB
 MEM_STATIC part       192 MB

                       Distance Matrix (Angstroms)
             C (  1)   C (  2)   H (  3)   H (  4)   H (  5)   C (  6)
   C (  2)  1.530768
   H (  3)  1.092379  2.166280
   H (  4)  1.097031  2.229884  1.553019
   H (  5)  1.086022  2.125077  1.950378  1.741435
   C (  6)  2.553179  1.530768  2.700950  2.845290  3.460466
   H (  7)  2.134496  1.092668  2.558910  3.090402  2.481939  2.134496
   H (  8)  2.149340  1.092195  3.049185  2.598572  2.383617  2.149340
   H (  9)  2.700952  2.166281  2.389900  2.977132  3.729474  1.092379
   H ( 10)  3.460466  2.125077  3.729472  3.800852  4.228211  1.086022
   H ( 11)  2.845288  2.229882  2.977127  2.699454  3.800849  1.097031
             H (  7)   H (  8)   H (  9)   H ( 10)
   H (  8)  1.795630
   H (  9)  2.558909  3.049187
   H ( 10)  2.481938  2.383618  1.950375
   H ( 11)  3.090401  2.598570  1.553023  1.741438
 
 A cutoff of  1.0D-09 yielded   2540 shell pairs
 There are     22594 function pairs (     27775 Cartesian)
 Smallest overlap matrix eigenvalue = 8.40E-05

 Scale SEOQF with 1.000000e-01/1.000000e-01/1.000000e-01

 Standard Electronic Orientation quadrupole field applied
 Nucleus-field energy     =     0.0000000004 hartrees
 Requested basis set is 6-31G(d)
 There are 28 shells and 58 basis functions
 A cutoff of  1.0D-09 yielded    402 shell pairs
 There are      1773 function pairs (      1968 Cartesian)
 Smallest overlap matrix eigenvalue = 6.50E-03
 Guess from superposition of atomic densities
 Warning:  Energy on first SCF cycle will be non-variational
 SAD guess density has 26.000000 electrons
 Long-range K will be added via erf
 Coulomb attenuation parameter = 0.2 bohr**(-1)
 A restricted hybrid HF-DFT SCF calculation will be
 performed using Relaxed Constraint Minimization + Pulay DIIS
 Exchange:     0.2220 Hartree-Fock + 1.0000 wB97X-D + LR-HF
 Correlation:  1.0000 wB97X-D
 Using Euler-Maclaurin-Lebedev (75,302) quadrature formula
 Dispersion:   Grimme D
 SCF converges when DIIS error is below 1.0E-04
 using 3 threads for integral computing
 -------------------------------------------------------
 OpenMP Integral computing Module                
 Release: version 1.0, May 2013, Q-Chem Inc. Pittsburgh 
 -------------------------------------------------------
 using 3 threads for integral computing
 -------------------------------------------------------
 OpenMP Integral computing Module                
 Release: version 1.0, May 2013, Q-Chem Inc. Pittsburgh 
 -------------------------------------------------------
 ---------------------------------------
  Cycle       Energy         DIIS Error
 ---------------------------------------
    1    -119.6184332458      1.00E-01
    2    -119.0333073197      9.20E-03
    3    -119.0556604006      2.56E-03
    4    -119.0702490327      1.74E-03
    5    -119.0710086774      2.93E-04 Done RCA. Switching to DIIS
    6    -119.0715571605      2.13E-04
    7    -119.0715771141      5.68E-06 Convergence criterion met
 ---------------------------------------
 SCF time:  CPU 32.88 s  wall 11.33 s
 SCF   energy in the small basis set = -119.07157711
 Total energy in the small basis set = -119.07157711
 ----------------------------------------------------
  Cycle       Energy    
 ----------------------------------------------------
    1     -16.5301774831     -1.65E+01
 Long-range K will be added via erf
 Coulomb attenuation parameter = 0.2 bohr**(-1)
 A restricted hybrid HF-DFT SCF calculation will be
 performed using Relaxed Constraint Minimization + Pulay DIIS
 Exchange:     0.2220 Hartree-Fock + 1.0000 wB97X-D + LR-HF
 Correlation:  1.0000 wB97X-D
 Using Euler-Maclaurin-Lebedev (75,302) quadrature formula
 Dispersion:   Grimme D
 SCF converges when DIIS error is below 1.0E-05
 Basis2 calculation detected. Using small basis as guess for larger.
 SCFMinFind is unable to tell whether the solution found is close.
 Resetting ReadMinima to 0 and attempting to follow guess.
 SCFMinFind following SCF Guess.
 using 3 threads for integral computing
 -------------------------------------------------------
 OpenMP Integral computing Module                
 Release: version 1.0, May 2013, Q-Chem Inc. Pittsburgh 
 -------------------------------------------------------
 using 3 threads for integral computing
 -------------------------------------------------------
 OpenMP Integral computing Module                
 Release: version 1.0, May 2013, Q-Chem Inc. Pittsburgh 
 -------------------------------------------------------
 ---------------------------------------
  Cycle       Energy         DIIS Error
 ---------------------------------------
    1    -119.0922218787      4.21E-03
    2    -119.1141713424      6.23E-04 Done RCA. Switching to DIIS
    3    -119.1150731707      4.39E-04
    4    -119.1161336612      4.43E-05
    5    -119.1161483030      1.01E-05
    6    -119.1161490065      4.20E-06 Convergence criterion met
 ---------------------------------------
 SCF time:  CPU 99.48 s  wall 33.65 s
 SCF   energy in the final basis set = -119.11614901
 Total energy in the final basis set = -119.11614901
 
 --------------------------------------------------------------
 
                    Orbital Energies (a.u.)
 --------------------------------------------------------------
 
 Alpha MOs
 -- Occupied --
-10.2756 -10.2661 -10.2661  -0.8817  -0.7793  -0.6836  -0.5481  -0.5180
 -0.5179  -0.4416  -0.4322  -0.3987  -0.3925
 -- Virtual --
  0.0676   0.0864   0.0874   0.1029   0.1184   0.1220   0.1362   0.1432
  0.1466   0.1679   0.1703   0.1974   0.2097   0.2271   0.2478   0.2698
  0.2816   0.2836   0.3039   0.3051   0.3405   0.3557   0.4557   0.4698
  0.4702   0.5096   0.5104   0.5312   0.5532   0.5653   0.5804   0.5820
  0.6064   0.6265   0.6288   0.6492   0.6535   0.6753   0.7154   0.7166
  0.7300   0.7684   0.8178   0.8621   0.8746   0.8799   0.8914   0.9317
  0.9697   1.0278   1.0781   1.1128   1.1245   1.1808   1.1962   1.2207
  1.2352   1.2544   1.2636   1.2640   1.2873   1.3304   1.3533   1.3593
  1.3821   1.3993   1.4282   1.4327   1.4368   1.4495   1.4697   1.5023
  1.5381   1.5520   1.6006   1.6136   1.6145   1.6514   1.6785   1.7056
  1.7870   2.4167   2.4654   2.4744   2.5057   2.5385   2.5730   2.5889
  2.6216   2.7687   2.7779   2.7998   2.8116   2.8711   2.9238   2.9273
  2.9477   2.9531   2.9808   3.0027   3.0176   3.0742   3.0777   3.1035
  3.1283   3.1353   3.1635   3.2041   3.2207   3.2572   3.2579   3.3093
  3.3123   3.3349   3.3357   3.3617   3.4103   3.4208   3.4337   3.4699
  3.4723   3.4914   3.5288   3.5570   3.5603   3.5856   3.5949   3.5988
  3.6275   3.6465   3.6615   3.6660   3.7346   3.7633   3.7983   3.8255
  3.8608   3.8784   3.9333   3.9409   3.9655   3.9900   4.0094   4.0380
  4.0452   4.0757   4.0796   4.1233   4.1305   4.1712   4.1846   4.2196
  4.2471   4.2828   4.3239   4.3359   4.3658   4.3986   4.4258   4.4598
  4.5153   4.5582   4.5953   4.6205   4.7000   4.7091   4.7695   4.8089
  4.8369   4.9062   4.9227   4.9579   4.9710   5.0984   5.1141   5.1187
  5.1341   5.1573   5.2723   5.2762   5.3117   5.3259   5.3585   5.4343
  5.4702   5.5161   5.5538   5.6213   5.6808   5.6943   5.7740   5.7957
  5.9782   6.2834   6.4016   6.4313   6.4478   6.4620  25.1824  25.4199
 25.4475
 --------------------------------------------------------------
 
 -----------------------------------------------------------------
                    Cartesian Multipole Moments
 -----------------------------------------------------------------
    Charge (ESU x 10^10)
                -0.0000
    Dipole Moment (Debye)
         X      -0.0000      Y       0.1923      Z       0.0722
       Tot       0.2054
    Quadrupole Moments (Debye-Ang)
        XX     -22.6698     XY       0.0000     YY     -22.3787
        XZ       0.0000     YZ      -0.3154     ZZ     -20.7783
    Octopole Moments (Debye-Ang^2)
       XXX      -0.0000    XXY       2.7679    XYY      -0.0000
       YYY       1.5997    XXZ      -1.5464    XYZ      -0.0000
       YYZ       0.1236    XZZ       0.0000    YZZ       0.2651
       ZZZ       2.9863
    Hexadecapole Moments (Debye-Ang^3)
      XXXX    -205.0240   XXXY       0.0001   XXYY     -44.0134
      XYYY       0.0000   YYYY     -44.3295   XXXZ       0.0000
      XXYZ      -0.2517   XYYZ      -0.0000   YYYZ       0.2955
      XXZZ     -43.5076   XYZZ       0.0000   YYZZ     -17.5825
      XZZZ       0.0000   YZZZ      -0.1826   ZZZZ     -73.6425
 -----------------------------------------------------------------
Archival summary:
1\1\cn0821\SP\ProcedureUnspecified\BasisUnspecified\38\r0852400\SunApr1207:51:052020SunApr1207:51:052020\0\\#,ProcedureUnspecified,BasisUnspecified,\\0,1\C\H,1,1.0922\H,1,1.09267,2,110.541\C,1,1.53077,2,108.907,3,118.174,0\H,4,1.08602,1,107.382,2,-51.258,0\H,4,1.09238,1,110.226,2,166.655,0\H,4,1.09703,1,115.118,2,66.2767,0\C,1,1.53077,2,108.907,3,-118.174,0\H,8,1.08602,1,107.382,2,51.2583,0\H,8,1.09238,1,110.226,2,-166.655,0\H,8,1.09703,1,115.118,2,-66.2767,0\\\@

 Total job time:  49.37s(wall), 137.72s(cpu) 
 Sun Apr 12 07:51:05 2020

        *************************************************************
        *                                                           *
        *  Thank you very much for using Q-Chem.  Have a nice day.  *
        *                                                           *
        *************************************************************


