                  Welcome to Q-Chem
     A Quantum Leap Into The Future Of Chemistry


 Q-Chem 5.2 (devel), Q-Chem, Inc., Pleasanton, CA (2019)

 Yihan Shao,  Zhengting Gan,  E. Epifanovsky,  A. T. B. Gilbert,  M. Wormit,  
 J. Kussmann,  A. W. Lange,  A. Behn,  Jia Deng,  Xintian Feng,  D. Ghosh,  
 M. Goldey,  P. R. Horn,  L. D. Jacobson,  I. Kaliman,  T. Kus,  A. Landau,  
 Jie Liu,  E. I. Proynov,  R. M. Richard,  R. P. Steele,  E. J. Sundstrom,  
 H. L. Woodcock III,  P. M. Zimmerman,  D. Zuev,  B. Alam,  B. Albrecht,  
 E. Alguire,  S. A. Baeppler,  D. Barton,  Z. Benda,  Y. A. Bernard,  
 E. J. Berquist,  K. B. Bravaya,  H. Burton,  K. Carter-Fenk,  D. Casanova,  
 Chun-Min Chang,  Yunqing Chen,  A. Chien,  K. D. Closser,  M. P. Coons,  
 S. Coriani,  S. Dasgupta,  A. L. Dempwolff,  M. Diedenhofen,  Hainam Do,  
 R. G. Edgar,  Po-Tung Fang,  S. Faraji,  S. Fatehi,  Qingguo Feng,  
 J. Fosso-Tande,  J. Gayvert,  Qinghui Ge,  A. Ghysels,  G. Gidofalvi,  
 J. Gomes,  J. Gonthier,  A. Gunina,  D. Hait,  M. W. D. Hanson-Heine,  
 P. H. P. Harbach,  A. W. Hauser,  M. F. Herbst,  J. E. Herr,  
 E. G. Hohenstein,  Z. C. Holden,  Kerwin Hui,  B. C. Huynh,  T.-C. Jagau,  
 Hyunjun Ji,  B. Kaduk,  K. Khistyaev,  Jaehoon Kim,  P. Klunzinger,  K. Koh,  
 D. Kosenkov,  L. Koulias,  T. Kowalczyk,  C. M. Krauter,  A. Kunitsa,  
 Ka Un Lao,  A. Laurent,  K. V. Lawler,  Joonho Lee,  D. Lefrancois,  
 S. Lehtola,  D. S. Levine,  Yi-Pei Li,  You-Sheng Lin,  Fenglai Liu,  
 Kuan-Yu Liu,  E. Livshits,  M. Loipersberger,  A. Luenser,  P. Manohar,  
 E. Mansoor,  S. F. Manzer,  Shan-Ping Mao,  Yuezhi Mao,  N. Mardirossian,  
 A. V. Marenich,  T. Markovich,  L. A. Martinez-Martinez,  S. A. Maurer,  
 N. J. Mayhall,  S. C. McKenzie,  J.-M. Mewes,  P. Morgante,  A. F. Morrison,  
 J. W. Mullinax,  K. Nanda,  T. S. Nguyen-Beck,  R. Olivares-Amaya,  
 J. A. Parkhill,  S. K. Paul,  Zheng Pei,  T. M. Perrine,  F. Plasser,  
 P. Pokhilko,  S. Prager,  A. Prociuk,  E. Ramos,  B. Rana,  D. R. Rehn,  
 F. Rob,  M. Scheurer,  M. Schneider,  N. Sergueev,  S. M. Sharada,  
 S. Sharma,  D. W. Small,  T. Stauch,  C. J. Stein,  T. Stein,  Yu-Chuan Su,  
 S. P. Veccham,  A. J. W. Thom,  A. Tkatchenko,  T. Tsuchimochi,  
 N. M. Tubman,  L. Vogt,  M. L. Vidal,  O. Vydrov,  M. A. Watson,  J. Wenzel,  
 M. de Wergifosse,  T. A. Wesolowski,  A. White,  J. Witte,  A. Yamada,  
 Jun Yang,  K. Yao,  S. Yeganeh,  S. R. Yost,  Zhi-Qiang You,  A. Zech,  
 Igor Ying Zhang,  Xing Zhang,  Yan Zhao,  Ying Zhu,  B. R. Brooks,  
 G. K. L. Chan,  C. J. Cramer,  M. S. Gordon,  W. J. Hehre,  A. Klamt,  
 M. W. Schmidt,  C. D. Sherrill,  D. G. Truhlar,  A. Aspuru-Guzik,  R. Baer,  
 A. T. Bell,  N. A. Besley,  Jeng-Da Chai,  A. E. DePrince, III,  
 R. A. DiStasio Jr.,  A. Dreuw,  B. D. Dunietz,  T. R. Furlani,  
 Chao-Ping Hsu,  Yousung Jung,  Jing Kong,  D. S. Lambrecht,  WanZhen Liang,  
 C. Ochsenfeld,  V. A. Rassolov,  L. V. Slipchenko,  J. E. Subotnik,  
 T. Van Voorhis,  J. M. Herbert,  A. I. Krylov,  P. M. W. Gill,  M. Head-Gordon

 Contributors to earlier versions of Q-Chem not listed above: 
 R. D. Adamson,  B. Austin,  J. Baker,  G. J. O. Beran,  K. Brandhorst,  
 S. T. Brown,  E. F. C. Byrd,  A. K. Chakraborty,  C.-L. Cheng,  
 Siu Hung Chien,  D. M. Chipman,  D. L. Crittenden,  H. Dachsel,  
 R. J. Doerksen,  A. D. Dutoi,  L. Fusti-Molnar,  W. A. Goddard III,  
 A. Golubeva-Zadorozhnaya,  S. R. Gwaltney,  G. Hawkins,  A. Heyden,  
 S. Hirata,  G. Kedziora,  F. J. Keil,  C. Kelley,  Jihan Kim,  R. A. King,  
 R. Z. Khaliullin,  P. P. Korambath,  W. Kurlancheek,  A. M. Lee,  M. S. Lee,  
 S. V. Levchenko,  Ching Yeh Lin,  D. Liotard,  R. C. Lochan,  I. Lotan,  
 P. E. Maslen,  N. Nair,  D. P. O'Neill,  D. Neuhauser,  E. Neuscamman,  
 C. M. Oana,  R. Olson,  B. Peters,  R. Peverati,  P. A. Pieniazek,  
 Y. M. Rhee,  J. Ritchie,  M. A. Rohrdanz,  E. Rosta,  N. J. Russ,  
 H. F. Schaefer III,  N. E. Schultz,  N. Shenvi,  A. C. Simmonett,  A. Sodt,  
 D. Stuck,  K. S. Thanthiriwatte,  V. Vanovschi,  Tao Wang,  A. Warshel,  
 C. F. Williams,  Q. Wu,  X. Xu,  W. Zhang

 Please cite Q-Chem as follows:
 Y. Shao et al., Mol. Phys. 113, 184-215 (2015)
 DOI: 10.1080/00268976.2014.952696

 Q-Chem 5.2.2 for Intel X86 EM64T Linux

 Parts of Q-Chem use Armadillo 9.800.1 (Horizon Scraper).
 http://arma.sourceforge.net/

 Q-Chem begins on Sun Apr 12 07:39:47 2020  

Host: cn0821
0

     Scratch files written to /tmp/ypli/6721342.srvc1/qchem189159//
Warning:  Did not find "$end" marker in "$molecule" section

Checking the input file for inconsistencies... 	...done.

--------------------------------------------------------------
User input:
--------------------------------------------------------------
$rem
   JOBTYPE  sp
   EXCHANGE   omegaB97X-D
   BASIS   6-311+G(2df,2pd)
   max_scf_cycles   250
   geom_opt_max_cycles   1500
   basis2 6-31G*
   scf_algorithm rca_diis
   SYM_IGNORE  TRUE
   print_input   true
   geom_opt_dmax   80
   pop_mulliken false
   XC_GRID 000075000302
$end

$molecule
0 1
C       1.3008737930     -0.0208971070     0.2292094956
C       0.0230395030     -0.0027030778     -0.5848819538
H       1.2437607067     -0.7566875416     1.0337661896
H       1.3799472334     0.7574425167     0.9994325402
H       2.1292224306     0.0830442564     -0.4642397847
C       -1.2325720785     0.0124791319     0.2942475226
H       -0.0432577405     -0.8740397692     -1.2407275542
H       0.0154756767     0.8724377813     -1.2389674435
H       -1.3872148956     -0.9661921497     0.7532416125
H       -2.1867274318     -0.0801752570     -0.2362843971
H       -1.2425472577     0.9752918820     0.7962487918
--------------------------------------------------------------
 ----------------------------------------------------------------
             Standard Nuclear Orientation (Angstroms)
    I     Atom           X                Y                Z
 ----------------------------------------------------------------
    1      C       1.3008737930    -0.0208971070     0.2292094956
    2      C       0.0230395030    -0.0027030778    -0.5848819538
    3      H       1.2437607067    -0.7566875416     1.0337661896
    4      H       1.3799472334     0.7574425167     0.9994325402
    5      H       2.1292224306     0.0830442564    -0.4642397847
    6      C      -1.2325720785     0.0124791319     0.2942475226
    7      H      -0.0432577405    -0.8740397692    -1.2407275542
    8      H       0.0154756767     0.8724377813    -1.2389674435
    9      H      -1.3872148956    -0.9661921497     0.7532416125
   10      H      -2.1867274318    -0.0801752570    -0.2362843971
   11      H      -1.2425472577     0.9752918820     0.7962487918
 ----------------------------------------------------------------
 Nuclear Repulsion Energy =          82.77837653 hartrees
 There are       13 alpha and       13 beta electrons
 Requested basis set is 6-311+G(2df,2pd)
 There are 72 shells and 214 basis functions

 Total QAlloc Memory Limit   2000 MB
 Mega-Array Size       188 MB
 MEM_STATIC part       192 MB

                       Distance Matrix (Angstroms)
             C (  1)   C (  2)   H (  3)   H (  4)   H (  5)   C (  6)
   C (  2)  1.515235
   H (  3)  1.091770  2.163024
   H (  4)  1.097866  2.220151  1.520630
   H (  5)  1.085282  2.111377  1.932153  1.777235
   C (  6)  2.534500  1.532860  2.696429  2.806691  3.447020
   H (  7)  2.166854  1.092592  2.616010  3.115375  2.497722  2.134604
   H (  8)  2.146122  1.092592  3.054186  2.624012  2.385638  2.155899
   H (  9)  2.897242  2.169724  2.654170  3.269360  3.866328  1.091965
   H ( 10)  3.519028  2.238435  3.720073  3.866493  4.325047  1.095656
   H ( 11)  2.789788  2.113222  3.039390  2.639360  3.708607  1.085870
             H (  7)   H (  8)   H (  9)   H ( 10)
   H (  8)  1.747466
   H (  9)  2.406372  3.052376
   H ( 10)  2.496716  2.600489  1.550293
   H ( 11)  3.001266  2.394850  1.947341  1.752601
 
 A cutoff of  1.0D-09 yielded   2534 shell pairs
 There are     22562 function pairs (     27740 Cartesian)
 Smallest overlap matrix eigenvalue = 8.44E-05

 Scale SEOQF with 1.000000e-01/1.000000e-01/1.000000e-01

 Standard Electronic Orientation quadrupole field applied
 Nucleus-field energy     =     0.0000000006 hartrees
 Requested basis set is 6-31G(d)
 There are 28 shells and 58 basis functions
 A cutoff of  1.0D-09 yielded    402 shell pairs
 There are      1773 function pairs (      1968 Cartesian)
 Smallest overlap matrix eigenvalue = 6.80E-03
 Guess from superposition of atomic densities
 Warning:  Energy on first SCF cycle will be non-variational
 SAD guess density has 26.000000 electrons
 Long-range K will be added via erf
 Coulomb attenuation parameter = 0.2 bohr**(-1)
 A restricted hybrid HF-DFT SCF calculation will be
 performed using Relaxed Constraint Minimization + Pulay DIIS
 Exchange:     0.2220 Hartree-Fock + 1.0000 wB97X-D + LR-HF
 Correlation:  1.0000 wB97X-D
 Using Euler-Maclaurin-Lebedev (75,302) quadrature formula
 Dispersion:   Grimme D
 SCF converges when DIIS error is below 1.0E-04
 using 3 threads for integral computing
 -------------------------------------------------------
 OpenMP Integral computing Module                
 Release: version 1.0, May 2013, Q-Chem Inc. Pittsburgh 
 -------------------------------------------------------
 using 3 threads for integral computing
 -------------------------------------------------------
 OpenMP Integral computing Module                
 Release: version 1.0, May 2013, Q-Chem Inc. Pittsburgh 
 -------------------------------------------------------
 ---------------------------------------
  Cycle       Energy         DIIS Error
 ---------------------------------------
    1    -119.6348174549      1.01E-01
    2    -119.0326603207      9.24E-03
    3    -119.0549723401      2.52E-03
    4    -119.0699066489      1.73E-03
    5    -119.0706426010      2.74E-04 Done RCA. Switching to DIIS
    6    -119.0711896852      2.00E-04
    7    -119.0712073379      6.39E-06 Convergence criterion met
 ---------------------------------------
 SCF time:  CPU 32.96 s  wall 11.37 s
 SCF   energy in the small basis set = -119.07120734
 Total energy in the small basis set = -119.07120734
 ----------------------------------------------------
  Cycle       Energy    
 ----------------------------------------------------
    1     -16.5352485808     -1.65E+01
 Long-range K will be added via erf
 Coulomb attenuation parameter = 0.2 bohr**(-1)
 A restricted hybrid HF-DFT SCF calculation will be
 performed using Relaxed Constraint Minimization + Pulay DIIS
 Exchange:     0.2220 Hartree-Fock + 1.0000 wB97X-D + LR-HF
 Correlation:  1.0000 wB97X-D
 Using Euler-Maclaurin-Lebedev (75,302) quadrature formula
 Dispersion:   Grimme D
 SCF converges when DIIS error is below 1.0E-05
 Basis2 calculation detected. Using small basis as guess for larger.
 SCFMinFind is unable to tell whether the solution found is close.
 Resetting ReadMinima to 0 and attempting to follow guess.
 SCFMinFind following SCF Guess.
 using 3 threads for integral computing
 -------------------------------------------------------
 OpenMP Integral computing Module                
 Release: version 1.0, May 2013, Q-Chem Inc. Pittsburgh 
 -------------------------------------------------------
 using 3 threads for integral computing
 -------------------------------------------------------
 OpenMP Integral computing Module                
 Release: version 1.0, May 2013, Q-Chem Inc. Pittsburgh 
 -------------------------------------------------------
 ---------------------------------------
  Cycle       Energy         DIIS Error
 ---------------------------------------
    1    -119.0919528090      4.21E-03
    2    -119.1139309719      6.22E-04 Done RCA. Switching to DIIS
    3    -119.1148062917      4.43E-04
    4    -119.1158833517      4.67E-05
    5    -119.1158992415      1.05E-05
    6    -119.1159000433      3.99E-06 Convergence criterion met
 ---------------------------------------
 SCF time:  CPU 97.94 s  wall 33.10 s
 SCF   energy in the final basis set = -119.11590004
 Total energy in the final basis set = -119.11590004
 
 --------------------------------------------------------------
 
                    Orbital Energies (a.u.)
 --------------------------------------------------------------
 
 Alpha MOs
 -- Occupied --
-10.2743 -10.2660 -10.2654  -0.8827  -0.7809  -0.6813  -0.5530  -0.5368
 -0.4862  -0.4587  -0.4249  -0.4016  -0.3891
 -- Virtual --
  0.0688   0.0851   0.0899   0.0983   0.1211   0.1308   0.1332   0.1412
  0.1432   0.1666   0.1747   0.1923   0.2180   0.2385   0.2587   0.2620
  0.2710   0.2890   0.3005   0.3166   0.3309   0.3441   0.4595   0.4705
  0.4786   0.5040   0.5205   0.5237   0.5435   0.5620   0.5743   0.6027
  0.6202   0.6283   0.6395   0.6443   0.6566   0.6694   0.7091   0.7163
  0.7312   0.7677   0.8059   0.8495   0.8667   0.8710   0.9047   0.9372
  0.9868   1.0437   1.0701   1.1124   1.1444   1.1502   1.1953   1.2217
  1.2426   1.2538   1.2672   1.2739   1.2900   1.3014   1.3519   1.3625
  1.3791   1.3915   1.4194   1.4447   1.4603   1.4702   1.4763   1.4973
  1.5185   1.5547   1.6046   1.6122   1.6405   1.6613   1.6751   1.7196
  1.7803   2.3911   2.4753   2.4869   2.5083   2.5569   2.5757   2.6021
  2.6257   2.7218   2.7949   2.8056   2.8225   2.8479   2.9113   2.9235
  2.9412   2.9564   2.9836   3.0133   3.0328   3.0533   3.0812   3.1081
  3.1336   3.1479   3.1721   3.2028   3.2244   3.2358   3.2572   3.2884
  3.3027   3.3202   3.3364   3.3558   3.3881   3.4206   3.4376   3.4658
  3.4953   3.5072   3.5313   3.5511   3.5676   3.5881   3.5997   3.6105
  3.6244   3.6435   3.6648   3.6913   3.7471   3.7666   3.8070   3.8353
  3.8488   3.9088   3.9285   3.9552   3.9658   3.9823   4.0057   4.0398
  4.0555   4.0823   4.0892   4.1330   4.1424   4.1843   4.2097   4.2243
  4.2458   4.2567   4.3185   4.3550   4.3891   4.4003   4.4051   4.4383
  4.5132   4.5733   4.6121   4.6258   4.6925   4.7144   4.7636   4.8286
  4.8524   4.9232   4.9461   4.9606   4.9946   5.0230   5.0567   5.1162
  5.1784   5.2125   5.2313   5.3058   5.3182   5.3414   5.3616   5.4222
  5.4739   5.5076   5.5666   5.6013   5.6759   5.7076   5.7600   5.8274
  5.9754   6.3046   6.3359   6.4322   6.4559   6.4767  25.2006  25.4280
 25.4567
 --------------------------------------------------------------
 
 -----------------------------------------------------------------
                    Cartesian Multipole Moments
 -----------------------------------------------------------------
    Charge (ESU x 10^10)
                 0.0000
    Dipole Moment (Debye)
         X      -0.1313      Y       0.0178      Z      -0.0780
       Tot       0.1537
    Quadrupole Moments (Debye-Ang)
        XX     -22.1221     XY       0.7483     YY     -21.5266
        XZ       0.0201     YZ       0.0310     ZZ     -21.8694
    Octopole Moments (Debye-Ang^2)
       XXX      -2.4779    XXY      -0.1263    XYY      -2.1975
       YYY       0.2882    XXZ      -1.3420    XYZ      -0.2376
       YYZ       0.1069    XZZ       1.4290    YZZ       0.1194
       ZZZ      -0.4305
    Hexadecapole Moments (Debye-Ang^3)
      XXXX    -203.2234   XXXY       3.7276   XXYY     -42.3819
      XYYY      -0.1431   YYYY     -44.2546   XXXZ      -1.4633
      XXYZ      -0.0998   XYYZ      -0.4677   YYYZ       0.1666
      XXZZ     -45.3533   XYZZ      -0.0735   YYZZ     -17.6436
      XZZZ       2.8050   YZZZ       0.0154   ZZZZ     -72.2434
 -----------------------------------------------------------------
Archival summary:
1\1\cn0821\SP\ProcedureUnspecified\BasisUnspecified\38\r0852400\SunApr1207:40:362020SunApr1207:40:362020\0\\#,ProcedureUnspecified,BasisUnspecified,\\0,1\C\H,1,1.09259\H,1,1.09259,2,106.201\C,1,1.51523,2,111.352,3,-119.373,0\H,4,1.08528,1,107.411,2,65.41,0\H,4,1.09177,1,111.094,2,-74.6974,0\H,4,1.09787,1,115.414,2,-172.817,0\C,1,1.53286,2,107.605,3,116.9,0\H,8,1.08587,1,106.347,2,-169.371,0\H,8,1.09196,1,110.377,2,49.8315,0\H,8,1.09566,1,115.772,2,-50.8046,0\\\@

 Total job time:  48.82s(wall), 136.15s(cpu) 
 Sun Apr 12 07:40:36 2020

        *************************************************************
        *                                                           *
        *  Thank you very much for using Q-Chem.  Have a nice day.  *
        *                                                           *
        *************************************************************


