                  Welcome to Q-Chem
     A Quantum Leap Into The Future Of Chemistry


 Q-Chem 5.2 (devel), Q-Chem, Inc., Pleasanton, CA (2019)

 Yihan Shao,  Zhengting Gan,  E. Epifanovsky,  A. T. B. Gilbert,  M. Wormit,  
 J. Kussmann,  A. W. Lange,  A. Behn,  Jia Deng,  Xintian Feng,  D. Ghosh,  
 M. Goldey,  P. R. Horn,  L. D. Jacobson,  I. Kaliman,  T. Kus,  A. Landau,  
 Jie Liu,  E. I. Proynov,  R. M. Richard,  R. P. Steele,  E. J. Sundstrom,  
 H. L. Woodcock III,  P. M. Zimmerman,  D. Zuev,  B. Alam,  B. Albrecht,  
 E. Alguire,  S. A. Baeppler,  D. Barton,  Z. Benda,  Y. A. Bernard,  
 E. J. Berquist,  K. B. Bravaya,  H. Burton,  K. Carter-Fenk,  D. Casanova,  
 Chun-Min Chang,  Yunqing Chen,  A. Chien,  K. D. Closser,  M. P. Coons,  
 S. Coriani,  S. Dasgupta,  A. L. Dempwolff,  M. Diedenhofen,  Hainam Do,  
 R. G. Edgar,  Po-Tung Fang,  S. Faraji,  S. Fatehi,  Qingguo Feng,  
 J. Fosso-Tande,  J. Gayvert,  Qinghui Ge,  A. Ghysels,  G. Gidofalvi,  
 J. Gomes,  J. Gonthier,  A. Gunina,  D. Hait,  M. W. D. Hanson-Heine,  
 P. H. P. Harbach,  A. W. Hauser,  M. F. Herbst,  J. E. Herr,  
 E. G. Hohenstein,  Z. C. Holden,  Kerwin Hui,  B. C. Huynh,  T.-C. Jagau,  
 Hyunjun Ji,  B. Kaduk,  K. Khistyaev,  Jaehoon Kim,  P. Klunzinger,  K. Koh,  
 D. Kosenkov,  L. Koulias,  T. Kowalczyk,  C. M. Krauter,  A. Kunitsa,  
 Ka Un Lao,  A. Laurent,  K. V. Lawler,  Joonho Lee,  D. Lefrancois,  
 S. Lehtola,  D. S. Levine,  Yi-Pei Li,  You-Sheng Lin,  Fenglai Liu,  
 Kuan-Yu Liu,  E. Livshits,  M. Loipersberger,  A. Luenser,  P. Manohar,  
 E. Mansoor,  S. F. Manzer,  Shan-Ping Mao,  Yuezhi Mao,  N. Mardirossian,  
 A. V. Marenich,  T. Markovich,  L. A. Martinez-Martinez,  S. A. Maurer,  
 N. J. Mayhall,  S. C. McKenzie,  J.-M. Mewes,  P. Morgante,  A. F. Morrison,  
 J. W. Mullinax,  K. Nanda,  T. S. Nguyen-Beck,  R. Olivares-Amaya,  
 J. A. Parkhill,  S. K. Paul,  Zheng Pei,  T. M. Perrine,  F. Plasser,  
 P. Pokhilko,  S. Prager,  A. Prociuk,  E. Ramos,  B. Rana,  D. R. Rehn,  
 F. Rob,  M. Scheurer,  M. Schneider,  N. Sergueev,  S. M. Sharada,  
 S. Sharma,  D. W. Small,  T. Stauch,  C. J. Stein,  T. Stein,  Yu-Chuan Su,  
 S. P. Veccham,  A. J. W. Thom,  A. Tkatchenko,  T. Tsuchimochi,  
 N. M. Tubman,  L. Vogt,  M. L. Vidal,  O. Vydrov,  M. A. Watson,  J. Wenzel,  
 M. de Wergifosse,  T. A. Wesolowski,  A. White,  J. Witte,  A. Yamada,  
 Jun Yang,  K. Yao,  S. Yeganeh,  S. R. Yost,  Zhi-Qiang You,  A. Zech,  
 Igor Ying Zhang,  Xing Zhang,  Yan Zhao,  Ying Zhu,  B. R. Brooks,  
 G. K. L. Chan,  C. J. Cramer,  M. S. Gordon,  W. J. Hehre,  A. Klamt,  
 M. W. Schmidt,  C. D. Sherrill,  D. G. Truhlar,  A. Aspuru-Guzik,  R. Baer,  
 A. T. Bell,  N. A. Besley,  Jeng-Da Chai,  A. E. DePrince, III,  
 R. A. DiStasio Jr.,  A. Dreuw,  B. D. Dunietz,  T. R. Furlani,  
 Chao-Ping Hsu,  Yousung Jung,  Jing Kong,  D. S. Lambrecht,  WanZhen Liang,  
 C. Ochsenfeld,  V. A. Rassolov,  L. V. Slipchenko,  J. E. Subotnik,  
 T. Van Voorhis,  J. M. Herbert,  A. I. Krylov,  P. M. W. Gill,  M. Head-Gordon

 Contributors to earlier versions of Q-Chem not listed above: 
 R. D. Adamson,  B. Austin,  J. Baker,  G. J. O. Beran,  K. Brandhorst,  
 S. T. Brown,  E. F. C. Byrd,  A. K. Chakraborty,  C.-L. Cheng,  
 Siu Hung Chien,  D. M. Chipman,  D. L. Crittenden,  H. Dachsel,  
 R. J. Doerksen,  A. D. Dutoi,  L. Fusti-Molnar,  W. A. Goddard III,  
 A. Golubeva-Zadorozhnaya,  S. R. Gwaltney,  G. Hawkins,  A. Heyden,  
 S. Hirata,  G. Kedziora,  F. J. Keil,  C. Kelley,  Jihan Kim,  R. A. King,  
 R. Z. Khaliullin,  P. P. Korambath,  W. Kurlancheek,  A. M. Lee,  M. S. Lee,  
 S. V. Levchenko,  Ching Yeh Lin,  D. Liotard,  R. C. Lochan,  I. Lotan,  
 P. E. Maslen,  N. Nair,  D. P. O'Neill,  D. Neuhauser,  E. Neuscamman,  
 C. M. Oana,  R. Olson,  B. Peters,  R. Peverati,  P. A. Pieniazek,  
 Y. M. Rhee,  J. Ritchie,  M. A. Rohrdanz,  E. Rosta,  N. J. Russ,  
 H. F. Schaefer III,  N. E. Schultz,  N. Shenvi,  A. C. Simmonett,  A. Sodt,  
 D. Stuck,  K. S. Thanthiriwatte,  V. Vanovschi,  Tao Wang,  A. Warshel,  
 C. F. Williams,  Q. Wu,  X. Xu,  W. Zhang

 Please cite Q-Chem as follows:
 Y. Shao et al., Mol. Phys. 113, 184-215 (2015)
 DOI: 10.1080/00268976.2014.952696

 Q-Chem 5.2.2 for Intel X86 EM64T Linux

 Parts of Q-Chem use Armadillo 9.800.1 (Horizon Scraper).
 http://arma.sourceforge.net/

 Q-Chem begins on Sun Apr 12 05:31:39 2020  

Host: cn0821
0

     Scratch files written to /tmp/ypli/6721342.srvc1/qchem169693//
Warning:  Did not find "$end" marker in "$molecule" section

Checking the input file for inconsistencies... 	...done.

--------------------------------------------------------------
User input:
--------------------------------------------------------------
$rem
   JOBTYPE  sp
   EXCHANGE   omegaB97X-D
   BASIS   6-311+G(2df,2pd)
   max_scf_cycles   250
   geom_opt_max_cycles   1500
   basis2 6-31G*
   scf_algorithm rca_diis
   SYM_IGNORE  TRUE
   print_input   true
   geom_opt_dmax   80
   pop_mulliken false
   XC_GRID 000075000302
$end

$molecule
0 1
C       1.3356768453     -0.0000760421     0.2603425923
C       -0.0000000224     0.0010243073     -0.4894466467
H       1.4590695261     -0.8827720946     0.8903873189
H       1.4606857774     0.8818821503     0.8912566269
H       2.1451565756     0.0009450704     -0.4717100777
C       -1.3356769464     -0.0000760769     0.2603424757
H       0.0000002490     -0.8679190138     -1.1531664653
H       -0.0000001793     0.8669364345     -1.1568947116
H       -1.4590695414     -0.8827719602     0.8903874343
H       -2.1451567522     0.0009457204     -0.4717100220
H       -1.4606855922     0.8818821708     0.8912564941
--------------------------------------------------------------
 ----------------------------------------------------------------
             Standard Nuclear Orientation (Angstroms)
    I     Atom           X                Y                Z
 ----------------------------------------------------------------
    1      C       1.3356768453    -0.0000760421     0.2603425923
    2      C      -0.0000000224     0.0010243073    -0.4894466467
    3      H       1.4590695261    -0.8827720946     0.8903873189
    4      H       1.4606857774     0.8818821503     0.8912566269
    5      H       2.1451565756     0.0009450704    -0.4717100777
    6      C      -1.3356769464    -0.0000760769     0.2603424757
    7      H       0.0000002490    -0.8679190138    -1.1531664653
    8      H      -0.0000001793     0.8669364345    -1.1568947116
    9      H      -1.4590695414    -0.8827719602     0.8903874343
   10      H      -2.1451567522     0.0009457204    -0.4717100220
   11      H      -1.4606855922     0.8818821708     0.8912564941
 ----------------------------------------------------------------
 Nuclear Repulsion Energy =          81.84090106 hartrees
 There are       13 alpha and       13 beta electrons
 Requested basis set is 6-311+G(2df,2pd)
 There are 72 shells and 214 basis functions

 Total QAlloc Memory Limit   2000 MB
 Mega-Array Size       188 MB
 MEM_STATIC part       192 MB

                       Distance Matrix (Angstroms)
             C (  1)   C (  2)   H (  3)   H (  4)   H (  5)   C (  6)
   C (  2)  1.531737
   H (  3)  1.091483  2.194065
   H (  4)  1.091572  2.194506  1.764655
   H (  5)  1.091403  2.145230  1.762663  1.761314
   C (  6)  2.671354  1.531737  2.997785  2.999258  3.556980
   H (  7)  2.129599  1.093429  2.511019  3.061874  2.412676  2.129599
   H (  8)  2.131738  1.093294  3.062961  2.515701  2.412699  2.131737
   H (  9)  2.997785  2.194065  2.918139  3.411594  3.953064  1.091483
   H ( 10)  3.556980  2.145230  3.953064  3.954216  4.290313  1.091403
   H ( 11)  2.999257  2.194505  3.411594  2.921371  3.954216  1.091572
             H (  7)   H (  8)   H (  9)   H ( 10)
   H (  8)  1.734859
   H (  9)  2.511019  3.062961
   H ( 10)  2.412676  2.412699  1.762663
   H ( 11)  3.061874  2.515700  1.764655  1.761314
 
 A cutoff of  1.0D-09 yielded   2512 shell pairs
 There are     22404 function pairs (     27565 Cartesian)
 Smallest overlap matrix eigenvalue = 8.76E-05

 Scale SEOQF with 1.000000e-01/1.000000e-01/1.000000e-01

 Standard Electronic Orientation quadrupole field applied
 Nucleus-field energy     =     0.0000000008 hartrees
 Requested basis set is 6-31G(d)
 There are 28 shells and 58 basis functions
 A cutoff of  1.0D-09 yielded    402 shell pairs
 There are      1773 function pairs (      1968 Cartesian)
 Smallest overlap matrix eigenvalue = 6.93E-03
 Guess from superposition of atomic densities
 Warning:  Energy on first SCF cycle will be non-variational
 SAD guess density has 26.000000 electrons
 Long-range K will be added via erf
 Coulomb attenuation parameter = 0.2 bohr**(-1)
 A restricted hybrid HF-DFT SCF calculation will be
 performed using Relaxed Constraint Minimization + Pulay DIIS
 Exchange:     0.2220 Hartree-Fock + 1.0000 wB97X-D + LR-HF
 Correlation:  1.0000 wB97X-D
 Using Euler-Maclaurin-Lebedev (75,302) quadrature formula
 Dispersion:   Grimme D
 SCF converges when DIIS error is below 1.0E-04
 using 3 threads for integral computing
 -------------------------------------------------------
 OpenMP Integral computing Module                
 Release: version 1.0, May 2013, Q-Chem Inc. Pittsburgh 
 -------------------------------------------------------
 using 3 threads for integral computing
 -------------------------------------------------------
 OpenMP Integral computing Module                
 Release: version 1.0, May 2013, Q-Chem Inc. Pittsburgh 
 -------------------------------------------------------
 ---------------------------------------
  Cycle       Energy         DIIS Error
 ---------------------------------------
    1    -119.5912177131      9.96E-02
    2    -119.0652024143      8.84E-03
    3    -119.0857753179      2.50E-03
    4    -119.0989247807      1.71E-03
    5    -119.0996550096      2.82E-04 Done RCA. Switching to DIIS
    6    -119.1001812259      2.09E-04
    7    -119.1002002330      4.27E-06 Convergence criterion met
 ---------------------------------------
 SCF time:  CPU 32.49 s  wall 11.22 s
 SCF   energy in the small basis set = -119.10020023
 Total energy in the small basis set = -119.10020023
 ----------------------------------------------------
  Cycle       Energy    
 ----------------------------------------------------
    1     -16.5307800058     -1.65E+01
 Long-range K will be added via erf
 Coulomb attenuation parameter = 0.2 bohr**(-1)
 A restricted hybrid HF-DFT SCF calculation will be
 performed using Relaxed Constraint Minimization + Pulay DIIS
 Exchange:     0.2220 Hartree-Fock + 1.0000 wB97X-D + LR-HF
 Correlation:  1.0000 wB97X-D
 Using Euler-Maclaurin-Lebedev (75,302) quadrature formula
 Dispersion:   Grimme D
 SCF converges when DIIS error is below 1.0E-05
 Basis2 calculation detected. Using small basis as guess for larger.
 SCFMinFind is unable to tell whether the solution found is close.
 Resetting ReadMinima to 0 and attempting to follow guess.
 SCFMinFind following SCF Guess.
 using 3 threads for integral computing
 -------------------------------------------------------
 OpenMP Integral computing Module                
 Release: version 1.0, May 2013, Q-Chem Inc. Pittsburgh 
 -------------------------------------------------------
 using 3 threads for integral computing
 -------------------------------------------------------
 OpenMP Integral computing Module                
 Release: version 1.0, May 2013, Q-Chem Inc. Pittsburgh 
 -------------------------------------------------------
 ---------------------------------------
  Cycle       Energy         DIIS Error
 ---------------------------------------
    1    -119.1192885923      4.21E-03
    2    -119.1413180954      5.87E-04 Done RCA. Switching to DIIS
    3    -119.1421539879      4.04E-04
    4    -119.1430496771      4.57E-05
    5    -119.1430643578      1.13E-05
    6    -119.1430651710      4.10E-06 Convergence criterion met
 ---------------------------------------
 SCF time:  CPU 97.21 s  wall 32.92 s
 SCF   energy in the final basis set = -119.14306517
 Total energy in the final basis set = -119.14306517
 
 --------------------------------------------------------------
 
                    Orbital Energies (a.u.)
 --------------------------------------------------------------
 
 Alpha MOs
 -- Occupied --
-10.2751 -10.2668 -10.2668  -0.8765  -0.7825  -0.6753  -0.5421  -0.5180
 -0.4887  -0.4683  -0.4234  -0.4099  -0.4042
 -- Virtual --
  0.0676   0.0867   0.0927   0.0991   0.1213   0.1293   0.1329   0.1468
  0.1476   0.1734   0.1755   0.1928   0.2376   0.2387   0.2436   0.2559
  0.2771   0.2860   0.3021   0.3103   0.3309   0.3548   0.4580   0.4620
  0.4771   0.5126   0.5189   0.5225   0.5369   0.5705   0.5793   0.5883
  0.6136   0.6159   0.6413   0.6488   0.6496   0.6534   0.7021   0.7251
  0.7318   0.7619   0.8429   0.8463   0.8522   0.8669   0.8902   0.9695
  0.9745   1.0391   1.0529   1.1346   1.1606   1.1695   1.1726   1.2076
  1.2324   1.2387   1.2719   1.2724   1.2778   1.2819   1.3362   1.3590
  1.3737   1.3754   1.3853   1.4569   1.4599   1.4780   1.4798   1.4978
  1.5284   1.5591   1.6047   1.6159   1.6410   1.6559   1.6815   1.6878
  1.7582   2.3657   2.4793   2.4823   2.4875   2.5380   2.5570   2.5647
  2.6404   2.7052   2.8060   2.8330   2.8361   2.9036   2.9311   2.9428
  2.9483   2.9645   2.9862   3.0032   3.0507   3.0854   3.0989   3.1109
  3.1378   3.1417   3.1552   3.1852   3.1954   3.2009   3.2442   3.2976
  3.3215   3.3271   3.3308   3.3447   3.3593   3.3602   3.4119   3.4342
  3.4522   3.4584   3.5187   3.5343   3.5611   3.5940   3.6026   3.6129
  3.6289   3.6486   3.6726   3.7082   3.7550   3.8460   3.8476   3.8511
  3.8881   3.9214   3.9258   3.9406   3.9657   4.0065   4.0192   4.0383
  4.0833   4.1097   4.1109   4.1552   4.1662   4.1677   4.1834   4.1845
  4.1921   4.2658   4.2733   4.3819   4.4010   4.4062   4.4370   4.4461
  4.4555   4.5419   4.5594   4.5882   4.7185   4.8064   4.8085   4.8817
  4.9220   4.9333   4.9772   4.9803   5.0121   5.0487   5.0704   5.1113
  5.1277   5.2236   5.2397   5.2492   5.3060   5.3236   5.3285   5.3380
  5.3756   5.3823   5.4062   5.4689   5.5577   5.5974   5.6053   5.7696
  5.9400   6.3709   6.3832   6.3973   6.4001   6.4665  25.2123  25.4318
 25.4435
 --------------------------------------------------------------
 
 -----------------------------------------------------------------
                    Cartesian Multipole Moments
 -----------------------------------------------------------------
    Charge (ESU x 10^10)
                 0.0000
    Dipole Moment (Debye)
         X       0.0000      Y      -0.0004      Z      -0.1115
       Tot       0.1115
    Quadrupole Moments (Debye-Ang)
        XX     -22.0630     XY      -0.0000     YY     -21.3981
        XZ       0.0000     YZ      -0.0062     ZZ     -21.8011
    Octopole Moments (Debye-Ang^2)
       XXX       0.0000    XXY       0.0077    XYY       0.0000
       YYY      -0.0175    XXZ      -1.8966    XYZ       0.0000
       YYZ       0.1891    XZZ       0.0000    YZZ       0.0012
       ZZZ      -1.5970
    Hexadecapole Moments (Debye-Ang^3)
      XXXX    -223.1516   XXXY      -0.0000   XXYY     -44.7295
      XYYY       0.0000   YYYY     -44.1417   XXXZ       0.0000
      XXYZ      -0.0023   XYYZ      -0.0000   YYYZ       0.0072
      XXZZ     -46.6429   XYZZ       0.0000   YYZZ     -16.4331
      XZZZ      -0.0000   YZZZ      -0.0040   ZZZZ     -67.3287
 -----------------------------------------------------------------
Archival summary:
1\1\cn0821\SP\ProcedureUnspecified\BasisUnspecified\38\r0852400\SunApr1205:32:272020SunApr1205:32:272020\0\\#,ProcedureUnspecified,BasisUnspecified,\\0,1\C\H,1,1.09329\H,1,1.09343,2,105.001\C,1,1.53174,2,107.422,3,-113.946,0\H,4,1.0914,1,108.567,2,56.0157,0\H,4,1.09148,1,112.44,2,175.08,0\H,4,1.09157,1,112.471,2,-62.9101,0\C,1,1.53174,2,107.422,3,113.946,0\H,8,1.0914,1,108.567,2,-56.0157,0\H,8,1.09148,1,112.44,2,-175.08,0\H,8,1.09157,1,112.471,2,62.91,0\\\@

 Total job time:  48.35s(wall), 134.87s(cpu) 
 Sun Apr 12 05:32:27 2020

        *************************************************************
        *                                                           *
        *  Thank you very much for using Q-Chem.  Have a nice day.  *
        *                                                           *
        *************************************************************


