                  Welcome to Q-Chem
     A Quantum Leap Into The Future Of Chemistry


 Q-Chem 5.2 (devel), Q-Chem, Inc., Pleasanton, CA (2019)

 Yihan Shao,  Zhengting Gan,  E. Epifanovsky,  A. T. B. Gilbert,  M. Wormit,  
 J. Kussmann,  A. W. Lange,  A. Behn,  Jia Deng,  Xintian Feng,  D. Ghosh,  
 M. Goldey,  P. R. Horn,  L. D. Jacobson,  I. Kaliman,  T. Kus,  A. Landau,  
 Jie Liu,  E. I. Proynov,  R. M. Richard,  R. P. Steele,  E. J. Sundstrom,  
 H. L. Woodcock III,  P. M. Zimmerman,  D. Zuev,  B. Alam,  B. Albrecht,  
 E. Alguire,  S. A. Baeppler,  D. Barton,  Z. Benda,  Y. A. Bernard,  
 E. J. Berquist,  K. B. Bravaya,  H. Burton,  K. Carter-Fenk,  D. Casanova,  
 Chun-Min Chang,  Yunqing Chen,  A. Chien,  K. D. Closser,  M. P. Coons,  
 S. Coriani,  S. Dasgupta,  A. L. Dempwolff,  M. Diedenhofen,  Hainam Do,  
 R. G. Edgar,  Po-Tung Fang,  S. Faraji,  S. Fatehi,  Qingguo Feng,  
 J. Fosso-Tande,  J. Gayvert,  Qinghui Ge,  A. Ghysels,  G. Gidofalvi,  
 J. Gomes,  J. Gonthier,  A. Gunina,  D. Hait,  M. W. D. Hanson-Heine,  
 P. H. P. Harbach,  A. W. Hauser,  M. F. Herbst,  J. E. Herr,  
 E. G. Hohenstein,  Z. C. Holden,  Kerwin Hui,  B. C. Huynh,  T.-C. Jagau,  
 Hyunjun Ji,  B. Kaduk,  K. Khistyaev,  Jaehoon Kim,  P. Klunzinger,  K. Koh,  
 D. Kosenkov,  L. Koulias,  T. Kowalczyk,  C. M. Krauter,  A. Kunitsa,  
 Ka Un Lao,  A. Laurent,  K. V. Lawler,  Joonho Lee,  D. Lefrancois,  
 S. Lehtola,  D. S. Levine,  Yi-Pei Li,  You-Sheng Lin,  Fenglai Liu,  
 Kuan-Yu Liu,  E. Livshits,  M. Loipersberger,  A. Luenser,  P. Manohar,  
 E. Mansoor,  S. F. Manzer,  Shan-Ping Mao,  Yuezhi Mao,  N. Mardirossian,  
 A. V. Marenich,  T. Markovich,  L. A. Martinez-Martinez,  S. A. Maurer,  
 N. J. Mayhall,  S. C. McKenzie,  J.-M. Mewes,  P. Morgante,  A. F. Morrison,  
 J. W. Mullinax,  K. Nanda,  T. S. Nguyen-Beck,  R. Olivares-Amaya,  
 J. A. Parkhill,  S. K. Paul,  Zheng Pei,  T. M. Perrine,  F. Plasser,  
 P. Pokhilko,  S. Prager,  A. Prociuk,  E. Ramos,  B. Rana,  D. R. Rehn,  
 F. Rob,  M. Scheurer,  M. Schneider,  N. Sergueev,  S. M. Sharada,  
 S. Sharma,  D. W. Small,  T. Stauch,  C. J. Stein,  T. Stein,  Yu-Chuan Su,  
 S. P. Veccham,  A. J. W. Thom,  A. Tkatchenko,  T. Tsuchimochi,  
 N. M. Tubman,  L. Vogt,  M. L. Vidal,  O. Vydrov,  M. A. Watson,  J. Wenzel,  
 M. de Wergifosse,  T. A. Wesolowski,  A. White,  J. Witte,  A. Yamada,  
 Jun Yang,  K. Yao,  S. Yeganeh,  S. R. Yost,  Zhi-Qiang You,  A. Zech,  
 Igor Ying Zhang,  Xing Zhang,  Yan Zhao,  Ying Zhu,  B. R. Brooks,  
 G. K. L. Chan,  C. J. Cramer,  M. S. Gordon,  W. J. Hehre,  A. Klamt,  
 M. W. Schmidt,  C. D. Sherrill,  D. G. Truhlar,  A. Aspuru-Guzik,  R. Baer,  
 A. T. Bell,  N. A. Besley,  Jeng-Da Chai,  A. E. DePrince, III,  
 R. A. DiStasio Jr.,  A. Dreuw,  B. D. Dunietz,  T. R. Furlani,  
 Chao-Ping Hsu,  Yousung Jung,  Jing Kong,  D. S. Lambrecht,  WanZhen Liang,  
 C. Ochsenfeld,  V. A. Rassolov,  L. V. Slipchenko,  J. E. Subotnik,  
 T. Van Voorhis,  J. M. Herbert,  A. I. Krylov,  P. M. W. Gill,  M. Head-Gordon

 Contributors to earlier versions of Q-Chem not listed above: 
 R. D. Adamson,  B. Austin,  J. Baker,  G. J. O. Beran,  K. Brandhorst,  
 S. T. Brown,  E. F. C. Byrd,  A. K. Chakraborty,  C.-L. Cheng,  
 Siu Hung Chien,  D. M. Chipman,  D. L. Crittenden,  H. Dachsel,  
 R. J. Doerksen,  A. D. Dutoi,  L. Fusti-Molnar,  W. A. Goddard III,  
 A. Golubeva-Zadorozhnaya,  S. R. Gwaltney,  G. Hawkins,  A. Heyden,  
 S. Hirata,  G. Kedziora,  F. J. Keil,  C. Kelley,  Jihan Kim,  R. A. King,  
 R. Z. Khaliullin,  P. P. Korambath,  W. Kurlancheek,  A. M. Lee,  M. S. Lee,  
 S. V. Levchenko,  Ching Yeh Lin,  D. Liotard,  R. C. Lochan,  I. Lotan,  
 P. E. Maslen,  N. Nair,  D. P. O'Neill,  D. Neuhauser,  E. Neuscamman,  
 C. M. Oana,  R. Olson,  B. Peters,  R. Peverati,  P. A. Pieniazek,  
 Y. M. Rhee,  J. Ritchie,  M. A. Rohrdanz,  E. Rosta,  N. J. Russ,  
 H. F. Schaefer III,  N. E. Schultz,  N. Shenvi,  A. C. Simmonett,  A. Sodt,  
 D. Stuck,  K. S. Thanthiriwatte,  V. Vanovschi,  Tao Wang,  A. Warshel,  
 C. F. Williams,  Q. Wu,  X. Xu,  W. Zhang

 Please cite Q-Chem as follows:
 Y. Shao et al., Mol. Phys. 113, 184-215 (2015)
 DOI: 10.1080/00268976.2014.952696

 Q-Chem 5.2.2 for Intel X86 EM64T Linux

 Parts of Q-Chem use Armadillo 9.800.1 (Horizon Scraper).
 http://arma.sourceforge.net/

 Q-Chem begins on Sun Apr 12 06:12:58 2020  

Host: cn0821
0

     Scratch files written to /tmp/ypli/6721342.srvc1/qchem175785//
Warning:  Did not find "$end" marker in "$molecule" section

Checking the input file for inconsistencies... 	...done.

--------------------------------------------------------------
User input:
--------------------------------------------------------------
$rem
   JOBTYPE  sp
   EXCHANGE   omegaB97X-D
   BASIS   6-311+G(2df,2pd)
   max_scf_cycles   250
   geom_opt_max_cycles   1500
   basis2 6-31G*
   scf_algorithm rca_diis
   SYM_IGNORE  TRUE
   print_input   true
   geom_opt_dmax   80
   pop_mulliken false
   XC_GRID 000075000302
$end

$molecule
0 1
C       1.3074786219     -0.0155547963     0.1972958452
C       0.0276433922     -0.0001779972     -0.5880212265
H       1.2722726128     -0.8651159281     0.8823503146
H       1.2219158104     0.8704174608     0.8315783145
H       2.2802259561     -0.0009449834     -0.2921490099
C       -1.2247005867     0.0167006173     0.3190942078
H       -0.1098913147     -0.8690583391     -1.2360086432
H       -0.0304708659     0.8735255597     -1.2414900762
H       -1.3294864819     -0.8895164431     0.9189674773
H       -2.0313458340     -0.0006708880     -0.4166117333
H       -1.3836413707     0.8803964034     0.9660395486
--------------------------------------------------------------
 ----------------------------------------------------------------
             Standard Nuclear Orientation (Angstroms)
    I     Atom           X                Y                Z
 ----------------------------------------------------------------
    1      C       1.3074786219    -0.0155547963     0.1972958452
    2      C       0.0276433922    -0.0001779972    -0.5880212265
    3      H       1.2722726128    -0.8651159281     0.8823503146
    4      H       1.2219158104     0.8704174608     0.8315783145
    5      H       2.2802259561    -0.0009449834    -0.2921490099
    6      C      -1.2247005867     0.0167006173     0.3190942078
    7      H      -0.1098913147    -0.8690583391    -1.2360086432
    8      H      -0.0304708659     0.8735255597    -1.2414900762
    9      H      -1.3294864819    -0.8895164431     0.9189674773
   10      H      -2.0313458340    -0.0006708880    -0.4166117333
   11      H      -1.3836413707     0.8803964034     0.9660395486
 ----------------------------------------------------------------
 Nuclear Repulsion Energy =          82.82420252 hartrees
 There are       13 alpha and       13 beta electrons
 Requested basis set is 6-311+G(2df,2pd)
 There are 72 shells and 214 basis functions

 Total QAlloc Memory Limit   2000 MB
 Mega-Array Size       188 MB
 MEM_STATIC part       192 MB

                       Distance Matrix (Angstroms)
             C (  1)   C (  2)   H (  3)   H (  4)   H (  5)   C (  6)
   C (  2)  1.501645
   H (  3)  1.091922  2.111685
   H (  4)  1.092969  2.049265  1.737006
   H (  5)  1.089040  2.271931  1.772628  1.772585
   C (  6)  2.535312  1.546450  2.707348  2.641478  3.557870
   H (  7)  2.189011  1.092592  2.529395  3.012375  2.712407  2.108486
   H (  8)  2.156543  1.092592  3.038209  2.422002  2.646746  2.143772
   H (  9)  2.870227  2.214439  2.602131  3.100751  3.909781  1.091814
   H ( 10)  3.394827  2.066112  3.653555  3.591724  4.313368  1.091898
   H ( 11)  2.938677  2.276454  3.179260  2.609043  3.972874  1.090766
             H (  7)   H (  8)   H (  9)   H ( 10)
   H (  8)  1.744401
   H (  9)  2.476238  3.076253
   H ( 10)  2.262188  2.334126  1.751121
   H ( 11)  3.087401  2.589267  1.771367  1.762817
 
 A cutoff of  1.0D-09 yielded   2536 shell pairs
 There are     22577 function pairs (     27760 Cartesian)
 Smallest overlap matrix eigenvalue = 8.81E-05

 Scale SEOQF with 1.000000e-01/1.000000e-01/1.000000e-01

 Standard Electronic Orientation quadrupole field applied
 Nucleus-field energy     =     0.0000000006 hartrees
 Requested basis set is 6-31G(d)
 There are 28 shells and 58 basis functions
 A cutoff of  1.0D-09 yielded    402 shell pairs
 There are      1773 function pairs (      1968 Cartesian)
 Smallest overlap matrix eigenvalue = 6.61E-03
 Guess from superposition of atomic densities
 Warning:  Energy on first SCF cycle will be non-variational
 SAD guess density has 26.000000 electrons
 Long-range K will be added via erf
 Coulomb attenuation parameter = 0.2 bohr**(-1)
 A restricted hybrid HF-DFT SCF calculation will be
 performed using Relaxed Constraint Minimization + Pulay DIIS
 Exchange:     0.2220 Hartree-Fock + 1.0000 wB97X-D + LR-HF
 Correlation:  1.0000 wB97X-D
 Using Euler-Maclaurin-Lebedev (75,302) quadrature formula
 Dispersion:   Grimme D
 SCF converges when DIIS error is below 1.0E-04
 using 3 threads for integral computing
 -------------------------------------------------------
 OpenMP Integral computing Module                
 Release: version 1.0, May 2013, Q-Chem Inc. Pittsburgh 
 -------------------------------------------------------
 using 3 threads for integral computing
 -------------------------------------------------------
 OpenMP Integral computing Module                
 Release: version 1.0, May 2013, Q-Chem Inc. Pittsburgh 
 -------------------------------------------------------
 ---------------------------------------
  Cycle       Energy         DIIS Error
 ---------------------------------------
    1    -119.6303937861      1.01E-01
    2    -119.0582237890      9.00E-03
    3    -119.0793104258      2.48E-03
    4    -119.0931335671      1.70E-03
    5    -119.0938446899      2.71E-04 Done RCA. Switching to DIIS
    6    -119.0943651248      2.00E-04
    7    -119.0943824908      4.60E-06 Convergence criterion met
 ---------------------------------------
 SCF time:  CPU 32.95 s  wall 11.39 s
 SCF   energy in the small basis set = -119.09438249
 Total energy in the small basis set = -119.09438249
 ----------------------------------------------------
  Cycle       Energy    
 ----------------------------------------------------
    1     -16.5403539788     -1.65E+01
 Long-range K will be added via erf
 Coulomb attenuation parameter = 0.2 bohr**(-1)
 A restricted hybrid HF-DFT SCF calculation will be
 performed using Relaxed Constraint Minimization + Pulay DIIS
 Exchange:     0.2220 Hartree-Fock + 1.0000 wB97X-D + LR-HF
 Correlation:  1.0000 wB97X-D
 Using Euler-Maclaurin-Lebedev (75,302) quadrature formula
 Dispersion:   Grimme D
 SCF converges when DIIS error is below 1.0E-05
 Basis2 calculation detected. Using small basis as guess for larger.
 SCFMinFind is unable to tell whether the solution found is close.
 Resetting ReadMinima to 0 and attempting to follow guess.
 SCFMinFind following SCF Guess.
 using 3 threads for integral computing
 -------------------------------------------------------
 OpenMP Integral computing Module                
 Release: version 1.0, May 2013, Q-Chem Inc. Pittsburgh 
 -------------------------------------------------------
 using 3 threads for integral computing
 -------------------------------------------------------
 OpenMP Integral computing Module                
 Release: version 1.0, May 2013, Q-Chem Inc. Pittsburgh 
 -------------------------------------------------------
 ---------------------------------------
  Cycle       Energy         DIIS Error
 ---------------------------------------
    1    -119.1137209332      4.21E-03
    2    -119.1357663415      6.00E-04 Done RCA. Switching to DIIS
    3    -119.1366077140      4.21E-04
    4    -119.1375783352      4.57E-05
    5    -119.1375932144      1.04E-05
    6    -119.1375939314      4.01E-06 Convergence criterion met
 ---------------------------------------
 SCF time:  CPU 100.03 s  wall 33.83 s
 SCF   energy in the final basis set = -119.13759393
 Total energy in the final basis set = -119.13759393
 
 --------------------------------------------------------------
 
                    Orbital Energies (a.u.)
 --------------------------------------------------------------
 
 Alpha MOs
 -- Occupied --
-10.2758 -10.2670 -10.2634  -0.8833  -0.7782  -0.6780  -0.5465  -0.5273
 -0.4839  -0.4632  -0.4187  -0.4132  -0.4061
 -- Virtual --
  0.0689   0.0857   0.0906   0.0989   0.1233   0.1303   0.1334   0.1422
  0.1432   0.1705   0.1721   0.1928   0.2310   0.2412   0.2454   0.2637
  0.2767   0.2816   0.2971   0.3305   0.3343   0.3489   0.4602   0.4680
  0.4685   0.5048   0.5122   0.5180   0.5481   0.5666   0.5819   0.5894
  0.6028   0.6301   0.6381   0.6530   0.6636   0.6658   0.7107   0.7246
  0.7251   0.7690   0.8212   0.8383   0.8682   0.8818   0.9083   0.9625
  0.9967   1.0350   1.0637   1.1309   1.1572   1.1657   1.1876   1.2069
  1.2316   1.2429   1.2733   1.2810   1.2852   1.2999   1.3290   1.3632
  1.3804   1.4056   1.4310   1.4431   1.4562   1.4701   1.4816   1.4994
  1.5293   1.5613   1.6045   1.6231   1.6409   1.6464   1.6800   1.6833
  1.7455   2.3910   2.4451   2.4826   2.5164   2.5379   2.5766   2.6116
  2.6371   2.7133   2.8005   2.8309   2.8513   2.9052   2.9232   2.9283
  2.9407   2.9490   2.9960   3.0097   3.0562   3.0678   3.0793   3.1077
  3.1328   3.1531   3.1749   3.1790   3.2188   3.2454   3.2852   3.2958
  3.3060   3.3212   3.3321   3.3528   3.3890   3.3955   3.4102   3.4215
  3.4636   3.4883   3.4962   3.5412   3.5632   3.5677   3.6023   3.6100
  3.6398   3.6662   3.6900   3.7155   3.7465   3.8117   3.8291   3.8830
  3.8979   3.9309   3.9572   3.9665   3.9902   4.0296   4.0359   4.0589
  4.0722   4.1033   4.1226   4.1398   4.1607   4.1717   4.1940   4.2193
  4.2404   4.2424   4.3162   4.3616   4.3744   4.4031   4.4405   4.4455
  4.4724   4.5817   4.5933   4.6029   4.6733   4.8037   4.8421   4.8889
  4.9167   4.9212   4.9511   4.9614   4.9899   5.0439   5.0966   5.1264
  5.1389   5.2299   5.2465   5.2851   5.3036   5.3420   5.3496   5.3679
  5.3820   5.3927   5.4836   5.5174   5.5650   5.5954   5.6899   5.7587
  5.9674   6.3901   6.3975   6.4049   6.4270   6.4714  25.1963  25.4312
 25.4622
 --------------------------------------------------------------
 
 -----------------------------------------------------------------
                    Cartesian Multipole Moments
 -----------------------------------------------------------------
    Charge (ESU x 10^10)
                 0.0000
    Dipole Moment (Debye)
         X      -0.0679      Y       0.0063      Z      -0.0829
       Tot       0.1073
    Quadrupole Moments (Debye-Ang)
        XX     -22.1294     XY      -0.0087     YY     -21.4152
        XZ      -0.0571     YZ      -0.0112     ZZ     -21.8771
    Octopole Moments (Debye-Ang^2)
       XXX       0.4143    XXY       0.0032    XYY      -0.9219
       YYY      -0.0075    XXZ      -1.3587    XYZ      -0.2456
       YYZ       0.4832    XZZ      -1.2409    YZZ       0.0242
       ZZZ      -0.3318
    Hexadecapole Moments (Debye-Ang^3)
      XXXX    -201.1428   XXXY       0.3036   XXYY     -42.1733
      XYYY       0.6678   YYYY     -44.0970   XXXZ       1.2908
      XXYZ       0.0647   XYYZ       0.4709   YYYZ      -0.0416
      XXZZ     -45.2670   XYZZ       0.0261   YYZZ     -17.1521
      XZZZ       2.3062   YZZZ      -0.0285   ZZZZ     -72.3182
 -----------------------------------------------------------------
Archival summary:
1\1\cn0821\SP\ProcedureUnspecified\BasisUnspecified\38\r0852400\SunApr1206:13:482020SunApr1206:13:482020\0\\#,ProcedureUnspecified,BasisUnspecified,\\0,1\C\H,1,1.09259\H,1,1.09259,2,105.933\C,1,1.50164,2,114.161,3,-123.065,0\H,4,1.08904,1,121.742,2,62.459,0\H,4,1.09192,1,107.974,2,-64.2518,0\H,4,1.09297,1,103.207,2,-175.432,0\C,1,1.54645,2,104.751,3,113.375,0\H,8,1.09077,1,118.33,2,-171.691,0\H,8,1.09181,1,113.013,2,59.9406,0\H,8,1.0919,1,101.704,2,-53.9769,0\\\@

 Total job time:  49.47s(wall), 138.13s(cpu) 
 Sun Apr 12 06:13:48 2020

        *************************************************************
        *                                                           *
        *  Thank you very much for using Q-Chem.  Have a nice day.  *
        *                                                           *
        *************************************************************


