                  Welcome to Q-Chem
     A Quantum Leap Into The Future Of Chemistry


 Q-Chem 5.2 (devel), Q-Chem, Inc., Pleasanton, CA (2019)

 Yihan Shao,  Zhengting Gan,  E. Epifanovsky,  A. T. B. Gilbert,  M. Wormit,  
 J. Kussmann,  A. W. Lange,  A. Behn,  Jia Deng,  Xintian Feng,  D. Ghosh,  
 M. Goldey,  P. R. Horn,  L. D. Jacobson,  I. Kaliman,  T. Kus,  A. Landau,  
 Jie Liu,  E. I. Proynov,  R. M. Richard,  R. P. Steele,  E. J. Sundstrom,  
 H. L. Woodcock III,  P. M. Zimmerman,  D. Zuev,  B. Alam,  B. Albrecht,  
 E. Alguire,  S. A. Baeppler,  D. Barton,  Z. Benda,  Y. A. Bernard,  
 E. J. Berquist,  K. B. Bravaya,  H. Burton,  K. Carter-Fenk,  D. Casanova,  
 Chun-Min Chang,  Yunqing Chen,  A. Chien,  K. D. Closser,  M. P. Coons,  
 S. Coriani,  S. Dasgupta,  A. L. Dempwolff,  M. Diedenhofen,  Hainam Do,  
 R. G. Edgar,  Po-Tung Fang,  S. Faraji,  S. Fatehi,  Qingguo Feng,  
 J. Fosso-Tande,  J. Gayvert,  Qinghui Ge,  A. Ghysels,  G. Gidofalvi,  
 J. Gomes,  J. Gonthier,  A. Gunina,  D. Hait,  M. W. D. Hanson-Heine,  
 P. H. P. Harbach,  A. W. Hauser,  M. F. Herbst,  J. E. Herr,  
 E. G. Hohenstein,  Z. C. Holden,  Kerwin Hui,  B. C. Huynh,  T.-C. Jagau,  
 Hyunjun Ji,  B. Kaduk,  K. Khistyaev,  Jaehoon Kim,  P. Klunzinger,  K. Koh,  
 D. Kosenkov,  L. Koulias,  T. Kowalczyk,  C. M. Krauter,  A. Kunitsa,  
 Ka Un Lao,  A. Laurent,  K. V. Lawler,  Joonho Lee,  D. Lefrancois,  
 S. Lehtola,  D. S. Levine,  Yi-Pei Li,  You-Sheng Lin,  Fenglai Liu,  
 Kuan-Yu Liu,  E. Livshits,  M. Loipersberger,  A. Luenser,  P. Manohar,  
 E. Mansoor,  S. F. Manzer,  Shan-Ping Mao,  Yuezhi Mao,  N. Mardirossian,  
 A. V. Marenich,  T. Markovich,  L. A. Martinez-Martinez,  S. A. Maurer,  
 N. J. Mayhall,  S. C. McKenzie,  J.-M. Mewes,  P. Morgante,  A. F. Morrison,  
 J. W. Mullinax,  K. Nanda,  T. S. Nguyen-Beck,  R. Olivares-Amaya,  
 J. A. Parkhill,  S. K. Paul,  Zheng Pei,  T. M. Perrine,  F. Plasser,  
 P. Pokhilko,  S. Prager,  A. Prociuk,  E. Ramos,  B. Rana,  D. R. Rehn,  
 F. Rob,  M. Scheurer,  M. Schneider,  N. Sergueev,  S. M. Sharada,  
 S. Sharma,  D. W. Small,  T. Stauch,  C. J. Stein,  T. Stein,  Yu-Chuan Su,  
 S. P. Veccham,  A. J. W. Thom,  A. Tkatchenko,  T. Tsuchimochi,  
 N. M. Tubman,  L. Vogt,  M. L. Vidal,  O. Vydrov,  M. A. Watson,  J. Wenzel,  
 M. de Wergifosse,  T. A. Wesolowski,  A. White,  J. Witte,  A. Yamada,  
 Jun Yang,  K. Yao,  S. Yeganeh,  S. R. Yost,  Zhi-Qiang You,  A. Zech,  
 Igor Ying Zhang,  Xing Zhang,  Yan Zhao,  Ying Zhu,  B. R. Brooks,  
 G. K. L. Chan,  C. J. Cramer,  M. S. Gordon,  W. J. Hehre,  A. Klamt,  
 M. W. Schmidt,  C. D. Sherrill,  D. G. Truhlar,  A. Aspuru-Guzik,  R. Baer,  
 A. T. Bell,  N. A. Besley,  Jeng-Da Chai,  A. E. DePrince, III,  
 R. A. DiStasio Jr.,  A. Dreuw,  B. D. Dunietz,  T. R. Furlani,  
 Chao-Ping Hsu,  Yousung Jung,  Jing Kong,  D. S. Lambrecht,  WanZhen Liang,  
 C. Ochsenfeld,  V. A. Rassolov,  L. V. Slipchenko,  J. E. Subotnik,  
 T. Van Voorhis,  J. M. Herbert,  A. I. Krylov,  P. M. W. Gill,  M. Head-Gordon

 Contributors to earlier versions of Q-Chem not listed above: 
 R. D. Adamson,  B. Austin,  J. Baker,  G. J. O. Beran,  K. Brandhorst,  
 S. T. Brown,  E. F. C. Byrd,  A. K. Chakraborty,  C.-L. Cheng,  
 Siu Hung Chien,  D. M. Chipman,  D. L. Crittenden,  H. Dachsel,  
 R. J. Doerksen,  A. D. Dutoi,  L. Fusti-Molnar,  W. A. Goddard III,  
 A. Golubeva-Zadorozhnaya,  S. R. Gwaltney,  G. Hawkins,  A. Heyden,  
 S. Hirata,  G. Kedziora,  F. J. Keil,  C. Kelley,  Jihan Kim,  R. A. King,  
 R. Z. Khaliullin,  P. P. Korambath,  W. Kurlancheek,  A. M. Lee,  M. S. Lee,  
 S. V. Levchenko,  Ching Yeh Lin,  D. Liotard,  R. C. Lochan,  I. Lotan,  
 P. E. Maslen,  N. Nair,  D. P. O'Neill,  D. Neuhauser,  E. Neuscamman,  
 C. M. Oana,  R. Olson,  B. Peters,  R. Peverati,  P. A. Pieniazek,  
 Y. M. Rhee,  J. Ritchie,  M. A. Rohrdanz,  E. Rosta,  N. J. Russ,  
 H. F. Schaefer III,  N. E. Schultz,  N. Shenvi,  A. C. Simmonett,  A. Sodt,  
 D. Stuck,  K. S. Thanthiriwatte,  V. Vanovschi,  Tao Wang,  A. Warshel,  
 C. F. Williams,  Q. Wu,  X. Xu,  W. Zhang

 Please cite Q-Chem as follows:
 Y. Shao et al., Mol. Phys. 113, 184-215 (2015)
 DOI: 10.1080/00268976.2014.952696

 Q-Chem 5.2.2 for Intel X86 EM64T Linux

 Parts of Q-Chem use Armadillo 9.800.1 (Horizon Scraper).
 http://arma.sourceforge.net/

 Q-Chem begins on Sun Apr 12 06:26:54 2020  

Host: cn0821
0

     Scratch files written to /tmp/ypli/6721342.srvc1/qchem177821//
Warning:  Did not find "$end" marker in "$molecule" section

Checking the input file for inconsistencies... 	...done.

--------------------------------------------------------------
User input:
--------------------------------------------------------------
$rem
   JOBTYPE  sp
   EXCHANGE   omegaB97X-D
   BASIS   6-311+G(2df,2pd)
   max_scf_cycles   250
   geom_opt_max_cycles   1500
   basis2 6-31G*
   scf_algorithm rca_diis
   SYM_IGNORE  TRUE
   print_input   true
   geom_opt_dmax   80
   pop_mulliken false
   XC_GRID 000075000302
$end

$molecule
0 1
C       1.2558240882     -0.0189073834     0.3066189350
C       0.0000000420     0.0162610526     -0.6151854535
H       1.4023827823     -0.8975820808     0.9343390925
H       1.3672188011     0.8829467771     0.9114971240
H       2.0835119829     0.0222073731     -0.4063222250
C       -1.2558241425     -0.0189073461     0.3066189972
H       -0.0000001779     -0.8736356304     -1.2510654905
H       0.0000000272     0.8800451935     -1.2849699887
H       -1.4023826912     -0.8975820382     0.9343391520
H       -2.0835118291     0.0222079588     -0.4063223332
H       -1.3672189434     0.8829467898     0.9114972092
--------------------------------------------------------------
 ----------------------------------------------------------------
             Standard Nuclear Orientation (Angstroms)
    I     Atom           X                Y                Z
 ----------------------------------------------------------------
    1      C       1.2558240882    -0.0189073834     0.3066189350
    2      C       0.0000000420     0.0162610526    -0.6151854535
    3      H       1.4023827823    -0.8975820808     0.9343390925
    4      H       1.3672188011     0.8829467771     0.9114971240
    5      H       2.0835119829     0.0222073731    -0.4063222250
    6      C      -1.2558241425    -0.0189073461     0.3066189972
    7      H      -0.0000001779    -0.8736356304    -1.2510654905
    8      H       0.0000000272     0.8800451935    -1.2849699887
    9      H      -1.4023826912    -0.8975820382     0.9343391520
   10      H      -2.0835118291     0.0222079588    -0.4063223332
   11      H      -1.3672189434     0.8829467898     0.9114972092
 ----------------------------------------------------------------
 Nuclear Repulsion Energy =          81.91453702 hartrees
 There are       13 alpha and       13 beta electrons
 Requested basis set is 6-311+G(2df,2pd)
 There are 72 shells and 214 basis functions

 Total QAlloc Memory Limit   2000 MB
 Mega-Array Size       188 MB
 MEM_STATIC part       192 MB

                       Distance Matrix (Angstroms)
             C (  1)   C (  2)   H (  3)   H (  4)   H (  5)   C (  6)
   C (  2)  1.558221
   H (  3)  1.089762  2.280968
   H (  4)  1.091617  2.225127  1.781023
   H (  5)  1.093180  2.093963  1.762760  1.729334
   C (  6)  2.511648  1.558222  2.869175  2.838939  3.414841
   H (  7)  2.175784  1.093736  2.596776  3.103473  2.420155  2.175784
   H (  8)  2.217739  1.093039  3.170484  2.587231  2.418456  2.217739
   H (  9)  2.869175  2.280968  2.804765  3.292643  3.846407  1.089762
   H ( 10)  3.414841  2.093963  3.846407  3.792764  4.167024  1.093180
   H ( 11)  2.838939  2.225127  3.292643  2.734438  3.792765  1.091617
             H (  7)   H (  8)   H (  9)   H ( 10)
   H (  8)  1.754009
   H (  9)  2.596776  3.170484
   H ( 10)  2.420154  2.418456  1.762760
   H ( 11)  3.103473  2.587231  1.781023  1.729334
 
 A cutoff of  1.0D-09 yielded   2528 shell pairs
 There are     22530 function pairs (     27705 Cartesian)
 Smallest overlap matrix eigenvalue = 9.34E-05

 Scale SEOQF with 1.000000e-01/1.000000e-01/1.000000e-01

 Standard Electronic Orientation quadrupole field applied
 Nucleus-field energy     =     0.0000000005 hartrees
 Requested basis set is 6-31G(d)
 There are 28 shells and 58 basis functions
 A cutoff of  1.0D-09 yielded    402 shell pairs
 There are      1773 function pairs (      1968 Cartesian)
 Smallest overlap matrix eigenvalue = 6.99E-03
 Guess from superposition of atomic densities
 Warning:  Energy on first SCF cycle will be non-variational
 SAD guess density has 26.000000 electrons
 Long-range K will be added via erf
 Coulomb attenuation parameter = 0.2 bohr**(-1)
 A restricted hybrid HF-DFT SCF calculation will be
 performed using Relaxed Constraint Minimization + Pulay DIIS
 Exchange:     0.2220 Hartree-Fock + 1.0000 wB97X-D + LR-HF
 Correlation:  1.0000 wB97X-D
 Using Euler-Maclaurin-Lebedev (75,302) quadrature formula
 Dispersion:   Grimme D
 SCF converges when DIIS error is below 1.0E-04
 using 3 threads for integral computing
 -------------------------------------------------------
 OpenMP Integral computing Module                
 Release: version 1.0, May 2013, Q-Chem Inc. Pittsburgh 
 -------------------------------------------------------
 using 3 threads for integral computing
 -------------------------------------------------------
 OpenMP Integral computing Module                
 Release: version 1.0, May 2013, Q-Chem Inc. Pittsburgh 
 -------------------------------------------------------
 ---------------------------------------
  Cycle       Energy         DIIS Error
 ---------------------------------------
    1    -119.5321714852      9.76E-02
    2    -119.0578175494      8.85E-03
    3    -119.0781604410      2.43E-03
    4    -119.0916025320      1.66E-03
    5    -119.0922814601      2.64E-04 Done RCA. Switching to DIIS
    6    -119.0927791230      1.92E-04
    7    -119.0927951874      1.82E-06 Convergence criterion met
 ---------------------------------------
 SCF time:  CPU 31.83 s  wall 10.98 s
 SCF   energy in the small basis set = -119.09279519
 Total energy in the small basis set = -119.09279519
 ----------------------------------------------------
  Cycle       Energy    
 ----------------------------------------------------
    1     -16.5133436790     -1.65E+01
 Long-range K will be added via erf
 Coulomb attenuation parameter = 0.2 bohr**(-1)
 A restricted hybrid HF-DFT SCF calculation will be
 performed using Relaxed Constraint Minimization + Pulay DIIS
 Exchange:     0.2220 Hartree-Fock + 1.0000 wB97X-D + LR-HF
 Correlation:  1.0000 wB97X-D
 Using Euler-Maclaurin-Lebedev (75,302) quadrature formula
 Dispersion:   Grimme D
 SCF converges when DIIS error is below 1.0E-05
 Basis2 calculation detected. Using small basis as guess for larger.
 SCFMinFind is unable to tell whether the solution found is close.
 Resetting ReadMinima to 0 and attempting to follow guess.
 SCFMinFind following SCF Guess.
 using 3 threads for integral computing
 -------------------------------------------------------
 OpenMP Integral computing Module                
 Release: version 1.0, May 2013, Q-Chem Inc. Pittsburgh 
 -------------------------------------------------------
 using 3 threads for integral computing
 -------------------------------------------------------
 OpenMP Integral computing Module                
 Release: version 1.0, May 2013, Q-Chem Inc. Pittsburgh 
 -------------------------------------------------------
 ---------------------------------------
  Cycle       Energy         DIIS Error
 ---------------------------------------
    1    -119.1117418842      4.21E-03
    2    -119.1337969817      6.01E-04 Done RCA. Switching to DIIS
    3    -119.1346397124      4.21E-04
    4    -119.1356158845      4.57E-05
    5    -119.1356308572      8.50E-06 Convergence criterion met
 ---------------------------------------
 SCF time:  CPU 83.38 s  wall 28.21 s
 SCF   energy in the final basis set = -119.13563086
 Total energy in the final basis set = -119.13563086
 
 --------------------------------------------------------------
 
                    Orbital Energies (a.u.)
 --------------------------------------------------------------
 
 Alpha MOs
 -- Occupied --
-10.2819 -10.2651 -10.2651  -0.8730  -0.7737  -0.6809  -0.5411  -0.5105
 -0.4880  -0.4655  -0.4341  -0.4140  -0.3875
 -- Virtual --
  0.0682   0.0859   0.0894   0.1001   0.1265   0.1301   0.1332   0.1390
  0.1438   0.1695   0.1714   0.1904   0.2355   0.2412   0.2435   0.2730
  0.2832   0.2843   0.2924   0.3091   0.3418   0.3423   0.4542   0.4599
  0.4743   0.5160   0.5167   0.5319   0.5359   0.5581   0.5855   0.5862
  0.6054   0.6069   0.6507   0.6512   0.6581   0.6673   0.7044   0.7246
  0.7294   0.7690   0.8050   0.8421   0.8710   0.8776   0.8964   0.9530
  0.9913   1.0462   1.0596   1.1485   1.1643   1.1715   1.1892   1.2050
  1.2212   1.2324   1.2471   1.2625   1.2658   1.2763   1.3148   1.3710
  1.3881   1.4116   1.4227   1.4590   1.4628   1.4637   1.4806   1.4976
  1.5127   1.5758   1.5926   1.5992   1.6350   1.6608   1.6850   1.6907
  1.7138   2.3563   2.4505   2.4599   2.5125   2.5436   2.5628   2.5734
  2.6224   2.6870   2.7948   2.8145   2.8423   2.8936   2.9000   2.9252
  2.9362   2.9422   2.9955   3.0206   3.0618   3.0638   3.0803   3.1066
  3.1178   3.1573   3.1716   3.1975   3.2015   3.2420   3.2689   3.3027
  3.3142   3.3287   3.3369   3.3483   3.3518   3.3819   3.3858   3.4364
  3.4435   3.4911   3.5031   3.5312   3.5567   3.5741   3.6046   3.6208
  3.6354   3.6431   3.6798   3.7056   3.7602   3.8188   3.8415   3.8578
  3.8724   3.8902   3.9059   3.9533   3.9943   4.0192   4.0261   4.0557
  4.0600   4.0676   4.1085   4.1255   4.1437   4.1691   4.1715   4.1876
  4.2109   4.2333   4.2572   4.3044   4.3343   4.3982   4.4208   4.4417
  4.4842   4.4919   4.5421   4.5686   4.6820   4.8083   4.8469   4.8727
  4.8733   4.9218   4.9693   4.9965   4.9977   5.0380   5.0908   5.1232
  5.1538   5.2197   5.2260   5.2432   5.3134   5.3206   5.3246   5.3615
  5.4024   5.4363   5.4457   5.4775   5.4807   5.5051   5.5707   5.6478
  5.9045   6.3578   6.3908   6.4045   6.4291   6.4449  25.1460  25.4050
 25.4430
 --------------------------------------------------------------
 
 -----------------------------------------------------------------
                    Cartesian Multipole Moments
 -----------------------------------------------------------------
    Charge (ESU x 10^10)
                 0.0000
    Dipole Moment (Debye)
         X       0.0000      Y       0.0127      Z      -0.1536
       Tot       0.1542
    Quadrupole Moments (Debye-Ang)
        XX     -22.7986     XY      -0.0000     YY     -21.2050
        XZ       0.0000     YZ      -0.2428     ZZ     -21.4278
    Octopole Moments (Debye-Ang^2)
       XXX       0.0000    XXY       0.0291    XYY       0.0000
       YYY       0.2454    XXZ      -0.8461    XYZ       0.0000
       YYZ       0.2621    XZZ      -0.0000    YZZ       0.0745
       ZZZ      -1.5814
    Hexadecapole Moments (Debye-Ang^3)
      XXXX    -210.9260   XXXY      -0.0000   XXYY     -41.3350
      XYYY       0.0000   YYYY     -43.9221   XXXZ       0.0000
      XXYZ      -0.4337   XYYZ       0.0000   YYYZ       0.3027
      XXZZ     -44.8507   XYZZ       0.0000   YYZZ     -17.2934
      XZZZ       0.0000   YZZZ      -0.1233   ZZZZ     -75.1539
 -----------------------------------------------------------------
Archival summary:
1\1\cn0821\SP\ProcedureUnspecified\BasisUnspecified\38\r0852400\SunApr1206:27:372020SunApr1206:27:372020\0\\#,ProcedureUnspecified,BasisUnspecified,\\0,1\C\H,1,1.09304\H,1,1.09374,2,106.662\C,1,1.55822,2,112.355,3,119.376,0\H,4,1.08976,1,117.862,2,-173.515,0\H,4,1.09162,1,113.041,2,57.1062,0\H,4,1.09318,1,102.917,2,-55.2068,0\C,1,1.55822,2,112.355,3,-119.376,0\H,8,1.08976,1,117.862,2,173.515,0\H,8,1.09162,1,113.041,2,-57.1062,0\H,8,1.09318,1,102.917,2,55.2068,0\\\@

 Total job time:  43.54s(wall), 120.52s(cpu) 
 Sun Apr 12 06:27:37 2020

        *************************************************************
        *                                                           *
        *  Thank you very much for using Q-Chem.  Have a nice day.  *
        *                                                           *
        *************************************************************


