                  Welcome to Q-Chem
     A Quantum Leap Into The Future Of Chemistry


 Q-Chem 5.2 (devel), Q-Chem, Inc., Pleasanton, CA (2019)

 Yihan Shao,  Zhengting Gan,  E. Epifanovsky,  A. T. B. Gilbert,  M. Wormit,  
 J. Kussmann,  A. W. Lange,  A. Behn,  Jia Deng,  Xintian Feng,  D. Ghosh,  
 M. Goldey,  P. R. Horn,  L. D. Jacobson,  I. Kaliman,  T. Kus,  A. Landau,  
 Jie Liu,  E. I. Proynov,  R. M. Richard,  R. P. Steele,  E. J. Sundstrom,  
 H. L. Woodcock III,  P. M. Zimmerman,  D. Zuev,  B. Alam,  B. Albrecht,  
 E. Alguire,  S. A. Baeppler,  D. Barton,  Z. Benda,  Y. A. Bernard,  
 E. J. Berquist,  K. B. Bravaya,  H. Burton,  K. Carter-Fenk,  D. Casanova,  
 Chun-Min Chang,  Yunqing Chen,  A. Chien,  K. D. Closser,  M. P. Coons,  
 S. Coriani,  S. Dasgupta,  A. L. Dempwolff,  M. Diedenhofen,  Hainam Do,  
 R. G. Edgar,  Po-Tung Fang,  S. Faraji,  S. Fatehi,  Qingguo Feng,  
 J. Fosso-Tande,  J. Gayvert,  Qinghui Ge,  A. Ghysels,  G. Gidofalvi,  
 J. Gomes,  J. Gonthier,  A. Gunina,  D. Hait,  M. W. D. Hanson-Heine,  
 P. H. P. Harbach,  A. W. Hauser,  M. F. Herbst,  J. E. Herr,  
 E. G. Hohenstein,  Z. C. Holden,  Kerwin Hui,  B. C. Huynh,  T.-C. Jagau,  
 Hyunjun Ji,  B. Kaduk,  K. Khistyaev,  Jaehoon Kim,  P. Klunzinger,  K. Koh,  
 D. Kosenkov,  L. Koulias,  T. Kowalczyk,  C. M. Krauter,  A. Kunitsa,  
 Ka Un Lao,  A. Laurent,  K. V. Lawler,  Joonho Lee,  D. Lefrancois,  
 S. Lehtola,  D. S. Levine,  Yi-Pei Li,  You-Sheng Lin,  Fenglai Liu,  
 Kuan-Yu Liu,  E. Livshits,  M. Loipersberger,  A. Luenser,  P. Manohar,  
 E. Mansoor,  S. F. Manzer,  Shan-Ping Mao,  Yuezhi Mao,  N. Mardirossian,  
 A. V. Marenich,  T. Markovich,  L. A. Martinez-Martinez,  S. A. Maurer,  
 N. J. Mayhall,  S. C. McKenzie,  J.-M. Mewes,  P. Morgante,  A. F. Morrison,  
 J. W. Mullinax,  K. Nanda,  T. S. Nguyen-Beck,  R. Olivares-Amaya,  
 J. A. Parkhill,  S. K. Paul,  Zheng Pei,  T. M. Perrine,  F. Plasser,  
 P. Pokhilko,  S. Prager,  A. Prociuk,  E. Ramos,  B. Rana,  D. R. Rehn,  
 F. Rob,  M. Scheurer,  M. Schneider,  N. Sergueev,  S. M. Sharada,  
 S. Sharma,  D. W. Small,  T. Stauch,  C. J. Stein,  T. Stein,  Yu-Chuan Su,  
 S. P. Veccham,  A. J. W. Thom,  A. Tkatchenko,  T. Tsuchimochi,  
 N. M. Tubman,  L. Vogt,  M. L. Vidal,  O. Vydrov,  M. A. Watson,  J. Wenzel,  
 M. de Wergifosse,  T. A. Wesolowski,  A. White,  J. Witte,  A. Yamada,  
 Jun Yang,  K. Yao,  S. Yeganeh,  S. R. Yost,  Zhi-Qiang You,  A. Zech,  
 Igor Ying Zhang,  Xing Zhang,  Yan Zhao,  Ying Zhu,  B. R. Brooks,  
 G. K. L. Chan,  C. J. Cramer,  M. S. Gordon,  W. J. Hehre,  A. Klamt,  
 M. W. Schmidt,  C. D. Sherrill,  D. G. Truhlar,  A. Aspuru-Guzik,  R. Baer,  
 A. T. Bell,  N. A. Besley,  Jeng-Da Chai,  A. E. DePrince, III,  
 R. A. DiStasio Jr.,  A. Dreuw,  B. D. Dunietz,  T. R. Furlani,  
 Chao-Ping Hsu,  Yousung Jung,  Jing Kong,  D. S. Lambrecht,  WanZhen Liang,  
 C. Ochsenfeld,  V. A. Rassolov,  L. V. Slipchenko,  J. E. Subotnik,  
 T. Van Voorhis,  J. M. Herbert,  A. I. Krylov,  P. M. W. Gill,  M. Head-Gordon

 Contributors to earlier versions of Q-Chem not listed above: 
 R. D. Adamson,  B. Austin,  J. Baker,  G. J. O. Beran,  K. Brandhorst,  
 S. T. Brown,  E. F. C. Byrd,  A. K. Chakraborty,  C.-L. Cheng,  
 Siu Hung Chien,  D. M. Chipman,  D. L. Crittenden,  H. Dachsel,  
 R. J. Doerksen,  A. D. Dutoi,  L. Fusti-Molnar,  W. A. Goddard III,  
 A. Golubeva-Zadorozhnaya,  S. R. Gwaltney,  G. Hawkins,  A. Heyden,  
 S. Hirata,  G. Kedziora,  F. J. Keil,  C. Kelley,  Jihan Kim,  R. A. King,  
 R. Z. Khaliullin,  P. P. Korambath,  W. Kurlancheek,  A. M. Lee,  M. S. Lee,  
 S. V. Levchenko,  Ching Yeh Lin,  D. Liotard,  R. C. Lochan,  I. Lotan,  
 P. E. Maslen,  N. Nair,  D. P. O'Neill,  D. Neuhauser,  E. Neuscamman,  
 C. M. Oana,  R. Olson,  B. Peters,  R. Peverati,  P. A. Pieniazek,  
 Y. M. Rhee,  J. Ritchie,  M. A. Rohrdanz,  E. Rosta,  N. J. Russ,  
 H. F. Schaefer III,  N. E. Schultz,  N. Shenvi,  A. C. Simmonett,  A. Sodt,  
 D. Stuck,  K. S. Thanthiriwatte,  V. Vanovschi,  Tao Wang,  A. Warshel,  
 C. F. Williams,  Q. Wu,  X. Xu,  W. Zhang

 Please cite Q-Chem as follows:
 Y. Shao et al., Mol. Phys. 113, 184-215 (2015)
 DOI: 10.1080/00268976.2014.952696

 Q-Chem 5.2.2 for Intel X86 EM64T Linux

 Parts of Q-Chem use Armadillo 9.800.1 (Horizon Scraper).
 http://arma.sourceforge.net/

 Q-Chem begins on Sun Apr 12 05:41:18 2020  

Host: cn0821
0

     Scratch files written to /tmp/ypli/6721342.srvc1/qchem171061//
Warning:  Did not find "$end" marker in "$molecule" section

Checking the input file for inconsistencies... 	...done.

--------------------------------------------------------------
User input:
--------------------------------------------------------------
$rem
   JOBTYPE  sp
   EXCHANGE   omegaB97X-D
   BASIS   6-311+G(2df,2pd)
   max_scf_cycles   250
   geom_opt_max_cycles   1500
   basis2 6-31G*
   scf_algorithm rca_diis
   SYM_IGNORE  TRUE
   print_input   true
   geom_opt_dmax   80
   pop_mulliken false
   XC_GRID 000075000302
$end

$molecule
0 1
C       1.2593696673     -0.0724908117     0.2565625616
C       0.0000000217     -0.1299451919     -0.6034394258
H       1.4160802353     -0.8303526161     1.0239935988
H       1.1424868664     0.8873109845     0.7691423753
H       2.1573152228     0.0249311300     -0.3536987288
C       -1.2593694905     -0.0724908620     0.2565628331
H       0.0000000583     -0.7891862867     -1.4708401534
H       -0.0000002909     0.9003338719     -0.9766751976
H       -1.4160804229     -0.8303526513     1.0239937283
H       -2.1573148209     0.0249317998     -0.3536986919
H       -1.1424871072     0.8873112993     0.7691421194
--------------------------------------------------------------
 ----------------------------------------------------------------
             Standard Nuclear Orientation (Angstroms)
    I     Atom           X                Y                Z
 ----------------------------------------------------------------
    1      C       1.2593696673    -0.0724908117     0.2565625616
    2      C       0.0000000217    -0.1299451919    -0.6034394258
    3      H       1.4160802353    -0.8303526161     1.0239935988
    4      H       1.1424868664     0.8873109845     0.7691423753
    5      H       2.1573152228     0.0249311300    -0.3536987288
    6      C      -1.2593694905    -0.0724908620     0.2565628331
    7      H       0.0000000583    -0.7891862867    -1.4708401534
    8      H      -0.0000002909     0.9003338719    -0.9766751976
    9      H      -1.4160804229    -0.8303526513     1.0239937283
   10      H      -2.1573148209     0.0249317998    -0.3536986919
   11      H      -1.1424871072     0.8873112993     0.7691421194
 ----------------------------------------------------------------
 Nuclear Repulsion Energy =          82.99025488 hartrees
 There are       13 alpha and       13 beta electrons
 Requested basis set is 6-311+G(2df,2pd)
 There are 72 shells and 214 basis functions

 Total QAlloc Memory Limit   2000 MB
 Mega-Array Size       188 MB
 MEM_STATIC part       192 MB

                       Distance Matrix (Angstroms)
             C (  1)   C (  2)   H (  3)   H (  4)   H (  5)   C (  6)
   C (  2)  1.526079
   H (  3)  1.089891  2.268125
   H (  4)  1.094358  2.055254  1.757888
   H (  5)  1.090053  2.177238  1.782968  1.741938
   C (  6)  2.518739  1.526079  2.884673  2.636830  3.472124
   H (  7)  2.254681  1.089487  2.869002  3.022158  2.562187  2.254681
   H (  8)  2.013275  1.095801  3.000539  2.086462  2.410071  2.013275
   H (  9)  2.884673  2.268125  2.832161  3.092181  3.924118  1.089891
   H ( 10)  3.472124  2.177238  3.924118  3.590705  4.314630  1.090053
   H ( 11)  2.636830  2.055254  3.092181  2.284974  3.590706  1.094358
             H (  7)   H (  8)   H (  9)   H ( 10)
   H (  8)  1.760306
   H (  9)  2.869002  3.000539
   H ( 10)  2.562187  2.410069  1.782968
   H ( 11)  3.022158  2.086462  1.757889  1.741937
 
 A cutoff of  1.0D-09 yielded   2540 shell pairs
 There are     22594 function pairs (     27775 Cartesian)
 Smallest overlap matrix eigenvalue = 9.35E-05

 Scale SEOQF with 1.000000e-01/1.000000e-01/1.000000e-01

 Standard Electronic Orientation quadrupole field applied
 Nucleus-field energy     =     0.0000000005 hartrees
 Requested basis set is 6-31G(d)
 There are 28 shells and 58 basis functions
 A cutoff of  1.0D-09 yielded    402 shell pairs
 There are      1773 function pairs (      1968 Cartesian)
 Smallest overlap matrix eigenvalue = 6.32E-03
 Guess from superposition of atomic densities
 Warning:  Energy on first SCF cycle will be non-variational
 SAD guess density has 26.000000 electrons
 Long-range K will be added via erf
 Coulomb attenuation parameter = 0.2 bohr**(-1)
 A restricted hybrid HF-DFT SCF calculation will be
 performed using Relaxed Constraint Minimization + Pulay DIIS
 Exchange:     0.2220 Hartree-Fock + 1.0000 wB97X-D + LR-HF
 Correlation:  1.0000 wB97X-D
 Using Euler-Maclaurin-Lebedev (75,302) quadrature formula
 Dispersion:   Grimme D
 SCF converges when DIIS error is below 1.0E-04
 using 3 threads for integral computing
 -------------------------------------------------------
 OpenMP Integral computing Module                
 Release: version 1.0, May 2013, Q-Chem Inc. Pittsburgh 
 -------------------------------------------------------
 using 3 threads for integral computing
 -------------------------------------------------------
 OpenMP Integral computing Module                
 Release: version 1.0, May 2013, Q-Chem Inc. Pittsburgh 
 -------------------------------------------------------
 ---------------------------------------
  Cycle       Energy         DIIS Error
 ---------------------------------------
    1    -119.6433106478      1.01E-01
    2    -119.0501789169      8.97E-03
    3    -119.0711725944      2.50E-03
    4    -119.0849777914      1.71E-03
    5    -119.0856958631      2.70E-04 Done RCA. Switching to DIIS
    6    -119.0862235195      2.00E-04
    7    -119.0862408310      4.68E-06 Convergence criterion met
 ---------------------------------------
 SCF time:  CPU 31.52 s  wall 10.88 s
 SCF   energy in the small basis set = -119.08624083
 Total energy in the small basis set = -119.08624083
 ----------------------------------------------------
  Cycle       Energy    
 ----------------------------------------------------
    1     -16.5414505302     -1.65E+01
 Long-range K will be added via erf
 Coulomb attenuation parameter = 0.2 bohr**(-1)
 A restricted hybrid HF-DFT SCF calculation will be
 performed using Relaxed Constraint Minimization + Pulay DIIS
 Exchange:     0.2220 Hartree-Fock + 1.0000 wB97X-D + LR-HF
 Correlation:  1.0000 wB97X-D
 Using Euler-Maclaurin-Lebedev (75,302) quadrature formula
 Dispersion:   Grimme D
 SCF converges when DIIS error is below 1.0E-05
 Basis2 calculation detected. Using small basis as guess for larger.
 SCFMinFind is unable to tell whether the solution found is close.
 Resetting ReadMinima to 0 and attempting to follow guess.
 SCFMinFind following SCF Guess.
 using 3 threads for integral computing
 -------------------------------------------------------
 OpenMP Integral computing Module                
 Release: version 1.0, May 2013, Q-Chem Inc. Pittsburgh 
 -------------------------------------------------------
 using 3 threads for integral computing
 -------------------------------------------------------
 OpenMP Integral computing Module                
 Release: version 1.0, May 2013, Q-Chem Inc. Pittsburgh 
 -------------------------------------------------------
 ---------------------------------------
  Cycle       Energy         DIIS Error
 ---------------------------------------
    1    -119.1059109770      4.21E-03
    2    -119.1279042488      6.01E-04 Done RCA. Switching to DIIS
    3    -119.1287422348      4.22E-04
    4    -119.1297172671      4.59E-05
    5    -119.1297321722      1.04E-05
    6    -119.1297328931      3.86E-06 Convergence criterion met
 ---------------------------------------
 SCF time:  CPU 97.53 s  wall 33.05 s
 SCF   energy in the final basis set = -119.12973289
 Total energy in the final basis set = -119.12973289
 
 --------------------------------------------------------------
 
                    Orbital Energies (a.u.)
 --------------------------------------------------------------
 
 Alpha MOs
 -- Occupied --
-10.2759 -10.2664 -10.2664  -0.8865  -0.7773  -0.6770  -0.5527  -0.5224
 -0.4887  -0.4555  -0.4230  -0.4172  -0.3984
 -- Virtual --
  0.0687   0.0858   0.0894   0.0960   0.1253   0.1293   0.1337   0.1355
  0.1428   0.1720   0.1728   0.1921   0.2273   0.2432   0.2450   0.2637
  0.2828   0.2872   0.3084   0.3132   0.3302   0.3493   0.4591   0.4687
  0.4729   0.4973   0.5131   0.5152   0.5406   0.5692   0.5878   0.5912
  0.6063   0.6271   0.6406   0.6450   0.6479   0.6723   0.7099   0.7248
  0.7249   0.7725   0.8168   0.8437   0.8644   0.8950   0.9246   0.9820
  1.0201   1.0244   1.0913   1.1091   1.1284   1.1593   1.1925   1.2026
  1.2326   1.2517   1.2622   1.2928   1.3136   1.3225   1.3299   1.3726
  1.3867   1.4013   1.4277   1.4286   1.4463   1.4701   1.5043   1.5307
  1.5409   1.5558   1.5705   1.6175   1.6317   1.6414   1.6559   1.6989
  1.7412   2.3862   2.4267   2.4545   2.5302   2.5618   2.6037   2.6280
  2.6950   2.7045   2.7626   2.8274   2.8697   2.8881   2.9071   2.9218
  2.9683   2.9993   3.0019   3.0019   3.0572   3.0626   3.0859   3.1006
  3.1322   3.1699   3.1754   3.1962   3.2125   3.2467   3.2502   3.2948
  3.3078   3.3079   3.3379   3.3670   3.3932   3.3942   3.4281   3.4483
  3.4523   3.5042   3.5082   3.5215   3.5690   3.5778   3.5888   3.6168
  3.6209   3.6348   3.6509   3.7459   3.7935   3.8139   3.8542   3.8715
  3.9036   3.9151   3.9154   3.9577   3.9808   4.0204   4.0695   4.0755
  4.0980   4.1118   4.1187   4.1540   4.1765   4.1823   4.1927   4.2072
  4.2343   4.2942   4.3234   4.3307   4.3478   4.4094   4.4262   4.4696
  4.5218   4.5756   4.5853   4.6446   4.7048   4.7969   4.8292   4.9007
  4.9082   4.9508   4.9694   4.9771   4.9849   5.0391   5.0983   5.1369
  5.1399   5.2306   5.2340   5.2552   5.2707   5.3316   5.3671   5.3760
  5.4021   5.4071   5.4881   5.5407   5.5709   5.6072   5.7158   5.7417
  5.9704   6.3907   6.3977   6.4102   6.4335   6.4978  25.1602  25.4352
 25.4532
 --------------------------------------------------------------
 
 -----------------------------------------------------------------
                    Cartesian Multipole Moments
 -----------------------------------------------------------------
    Charge (ESU x 10^10)
                -0.0000
    Dipole Moment (Debye)
         X      -0.0000      Y       0.1786      Z      -0.0904
       Tot       0.2001
    Quadrupole Moments (Debye-Ang)
        XX     -22.1883     XY      -0.0000     YY     -21.5581
        XZ      -0.0000     YZ      -0.0936     ZZ     -21.7673
    Octopole Moments (Debye-Ang^2)
       XXX       0.0000    XXY       0.9707    XYY      -0.0000
       YYY       4.2776    XXZ      -1.2936    XYZ       0.0000
       YYZ       0.5603    XZZ      -0.0000    YZZ      -0.0229
       ZZZ      -0.2470
    Hexadecapole Moments (Debye-Ang^3)
      XXXX    -199.3777   XXXY      -0.0000   XXYY     -42.1585
      XYYY       0.0000   YYYY     -44.2119   XXXZ      -0.0000
      XXYZ      -1.5111   XYYZ       0.0000   YYYZ      -0.6069
      XXZZ     -44.6519   XYZZ       0.0000   YYZZ     -17.6638
      XZZZ       0.0000   YZZZ      -0.0257   ZZZZ     -71.4144
 -----------------------------------------------------------------
Archival summary:
1\1\cn0821\SP\ProcedureUnspecified\BasisUnspecified\38\r0852400\SunApr1205:42:062020SunApr1205:42:062020\0\\#,ProcedureUnspecified,BasisUnspecified,\\0,1\C\H,1,1.08949\H,1,1.0958,2,107.322\C,1,1.52608,2,118.128,3,-110.651,0\H,4,1.08989,1,119.294,2,-83.2183,0\H,4,1.09005,1,111.572,2,46.4575,0\H,4,1.09436,1,102.054,2,158.996,0\C,1,1.52608,2,118.128,3,110.651,0\H,8,1.08989,1,119.294,2,83.2183,0\H,8,1.09005,1,111.572,2,-46.4575,0\H,8,1.09436,1,102.054,2,-158.996,0\\\@

 Total job time:  48.06s(wall), 134.13s(cpu) 
 Sun Apr 12 05:42:06 2020

        *************************************************************
        *                                                           *
        *  Thank you very much for using Q-Chem.  Have a nice day.  *
        *                                                           *
        *************************************************************


