                  Welcome to Q-Chem
     A Quantum Leap Into The Future Of Chemistry


 Q-Chem 5.2 (devel), Q-Chem, Inc., Pleasanton, CA (2019)

 Yihan Shao,  Zhengting Gan,  E. Epifanovsky,  A. T. B. Gilbert,  M. Wormit,  
 J. Kussmann,  A. W. Lange,  A. Behn,  Jia Deng,  Xintian Feng,  D. Ghosh,  
 M. Goldey,  P. R. Horn,  L. D. Jacobson,  I. Kaliman,  T. Kus,  A. Landau,  
 Jie Liu,  E. I. Proynov,  R. M. Richard,  R. P. Steele,  E. J. Sundstrom,  
 H. L. Woodcock III,  P. M. Zimmerman,  D. Zuev,  B. Alam,  B. Albrecht,  
 E. Alguire,  S. A. Baeppler,  D. Barton,  Z. Benda,  Y. A. Bernard,  
 E. J. Berquist,  K. B. Bravaya,  H. Burton,  K. Carter-Fenk,  D. Casanova,  
 Chun-Min Chang,  Yunqing Chen,  A. Chien,  K. D. Closser,  M. P. Coons,  
 S. Coriani,  S. Dasgupta,  A. L. Dempwolff,  M. Diedenhofen,  Hainam Do,  
 R. G. Edgar,  Po-Tung Fang,  S. Faraji,  S. Fatehi,  Qingguo Feng,  
 J. Fosso-Tande,  J. Gayvert,  Qinghui Ge,  A. Ghysels,  G. Gidofalvi,  
 J. Gomes,  J. Gonthier,  A. Gunina,  D. Hait,  M. W. D. Hanson-Heine,  
 P. H. P. Harbach,  A. W. Hauser,  M. F. Herbst,  J. E. Herr,  
 E. G. Hohenstein,  Z. C. Holden,  Kerwin Hui,  B. C. Huynh,  T.-C. Jagau,  
 Hyunjun Ji,  B. Kaduk,  K. Khistyaev,  Jaehoon Kim,  P. Klunzinger,  K. Koh,  
 D. Kosenkov,  L. Koulias,  T. Kowalczyk,  C. M. Krauter,  A. Kunitsa,  
 Ka Un Lao,  A. Laurent,  K. V. Lawler,  Joonho Lee,  D. Lefrancois,  
 S. Lehtola,  D. S. Levine,  Yi-Pei Li,  You-Sheng Lin,  Fenglai Liu,  
 Kuan-Yu Liu,  E. Livshits,  M. Loipersberger,  A. Luenser,  P. Manohar,  
 E. Mansoor,  S. F. Manzer,  Shan-Ping Mao,  Yuezhi Mao,  N. Mardirossian,  
 A. V. Marenich,  T. Markovich,  L. A. Martinez-Martinez,  S. A. Maurer,  
 N. J. Mayhall,  S. C. McKenzie,  J.-M. Mewes,  P. Morgante,  A. F. Morrison,  
 J. W. Mullinax,  K. Nanda,  T. S. Nguyen-Beck,  R. Olivares-Amaya,  
 J. A. Parkhill,  S. K. Paul,  Zheng Pei,  T. M. Perrine,  F. Plasser,  
 P. Pokhilko,  S. Prager,  A. Prociuk,  E. Ramos,  B. Rana,  D. R. Rehn,  
 F. Rob,  M. Scheurer,  M. Schneider,  N. Sergueev,  S. M. Sharada,  
 S. Sharma,  D. W. Small,  T. Stauch,  C. J. Stein,  T. Stein,  Yu-Chuan Su,  
 S. P. Veccham,  A. J. W. Thom,  A. Tkatchenko,  T. Tsuchimochi,  
 N. M. Tubman,  L. Vogt,  M. L. Vidal,  O. Vydrov,  M. A. Watson,  J. Wenzel,  
 M. de Wergifosse,  T. A. Wesolowski,  A. White,  J. Witte,  A. Yamada,  
 Jun Yang,  K. Yao,  S. Yeganeh,  S. R. Yost,  Zhi-Qiang You,  A. Zech,  
 Igor Ying Zhang,  Xing Zhang,  Yan Zhao,  Ying Zhu,  B. R. Brooks,  
 G. K. L. Chan,  C. J. Cramer,  M. S. Gordon,  W. J. Hehre,  A. Klamt,  
 M. W. Schmidt,  C. D. Sherrill,  D. G. Truhlar,  A. Aspuru-Guzik,  R. Baer,  
 A. T. Bell,  N. A. Besley,  Jeng-Da Chai,  A. E. DePrince, III,  
 R. A. DiStasio Jr.,  A. Dreuw,  B. D. Dunietz,  T. R. Furlani,  
 Chao-Ping Hsu,  Yousung Jung,  Jing Kong,  D. S. Lambrecht,  WanZhen Liang,  
 C. Ochsenfeld,  V. A. Rassolov,  L. V. Slipchenko,  J. E. Subotnik,  
 T. Van Voorhis,  J. M. Herbert,  A. I. Krylov,  P. M. W. Gill,  M. Head-Gordon

 Contributors to earlier versions of Q-Chem not listed above: 
 R. D. Adamson,  B. Austin,  J. Baker,  G. J. O. Beran,  K. Brandhorst,  
 S. T. Brown,  E. F. C. Byrd,  A. K. Chakraborty,  C.-L. Cheng,  
 Siu Hung Chien,  D. M. Chipman,  D. L. Crittenden,  H. Dachsel,  
 R. J. Doerksen,  A. D. Dutoi,  L. Fusti-Molnar,  W. A. Goddard III,  
 A. Golubeva-Zadorozhnaya,  S. R. Gwaltney,  G. Hawkins,  A. Heyden,  
 S. Hirata,  G. Kedziora,  F. J. Keil,  C. Kelley,  Jihan Kim,  R. A. King,  
 R. Z. Khaliullin,  P. P. Korambath,  W. Kurlancheek,  A. M. Lee,  M. S. Lee,  
 S. V. Levchenko,  Ching Yeh Lin,  D. Liotard,  R. C. Lochan,  I. Lotan,  
 P. E. Maslen,  N. Nair,  D. P. O'Neill,  D. Neuhauser,  E. Neuscamman,  
 C. M. Oana,  R. Olson,  B. Peters,  R. Peverati,  P. A. Pieniazek,  
 Y. M. Rhee,  J. Ritchie,  M. A. Rohrdanz,  E. Rosta,  N. J. Russ,  
 H. F. Schaefer III,  N. E. Schultz,  N. Shenvi,  A. C. Simmonett,  A. Sodt,  
 D. Stuck,  K. S. Thanthiriwatte,  V. Vanovschi,  Tao Wang,  A. Warshel,  
 C. F. Williams,  Q. Wu,  X. Xu,  W. Zhang

 Please cite Q-Chem as follows:
 Y. Shao et al., Mol. Phys. 113, 184-215 (2015)
 DOI: 10.1080/00268976.2014.952696

 Q-Chem 5.2.2 for Intel X86 EM64T Linux

 Parts of Q-Chem use Armadillo 9.800.1 (Horizon Scraper).
 http://arma.sourceforge.net/

 Q-Chem begins on Sun Apr 12 05:54:42 2020  

Host: cn0821
0

     Scratch files written to /tmp/ypli/6721342.srvc1/qchem173062//
Warning:  Did not find "$end" marker in "$molecule" section

Checking the input file for inconsistencies... 	...done.

--------------------------------------------------------------
User input:
--------------------------------------------------------------
$rem
   JOBTYPE  sp
   EXCHANGE   omegaB97X-D
   BASIS   6-311+G(2df,2pd)
   max_scf_cycles   250
   geom_opt_max_cycles   1500
   basis2 6-31G*
   scf_algorithm rca_diis
   SYM_IGNORE  TRUE
   print_input   true
   geom_opt_dmax   80
   pop_mulliken false
   XC_GRID 000075000302
$end

$molecule
0 1
C       1.2142872113     -0.0023592974     0.2610272587
C       0.0000000289     -0.0014774796     -0.5215417329
H       1.3062410350     -0.8846721786     0.8964383522
H       1.3008244608     0.8846551419     0.8910994836
H       2.0501352149     0.0023132374     -0.4383904189
C       -1.2142870132     -0.0023591189     0.2610275316
H       -0.0000004116     -0.8720427152     -1.1819413702
H       -0.0000001264     0.8736462856     -1.1758213512
H       -1.3062410325     -0.8846722426     0.8964382250
H       -2.0501345935     0.0023137224     -0.4383906741
H       -1.3008248342     0.8846553110     0.8910997151
--------------------------------------------------------------
 ----------------------------------------------------------------
             Standard Nuclear Orientation (Angstroms)
    I     Atom           X                Y                Z
 ----------------------------------------------------------------
    1      C       1.2142872113    -0.0023592974     0.2610272587
    2      C       0.0000000289    -0.0014774796    -0.5215417329
    3      H       1.3062410350    -0.8846721786     0.8964383522
    4      H       1.3008244608     0.8846551419     0.8910994836
    5      H       2.0501352149     0.0023132374    -0.4383904189
    6      C      -1.2142870132    -0.0023591189     0.2610275316
    7      H      -0.0000004116    -0.8720427152    -1.1819413702
    8      H      -0.0000001264     0.8736462856    -1.1758213512
    9      H      -1.3062410325    -0.8846722426     0.8964382250
   10      H      -2.0501345935     0.0023137224    -0.4383906741
   11      H      -1.3008248342     0.8846553110     0.8910997151
 ----------------------------------------------------------------
 Nuclear Repulsion Energy =          85.24181422 hartrees
 There are       13 alpha and       13 beta electrons
 Requested basis set is 6-311+G(2df,2pd)
 There are 72 shells and 214 basis functions

 Total QAlloc Memory Limit   2000 MB
 Mega-Array Size       188 MB
 MEM_STATIC part       192 MB

                       Distance Matrix (Angstroms)
             C (  1)   C (  2)   H (  3)   H (  4)   H (  5)   C (  6)
   C (  2)  1.444614
   H (  3)  1.091182  2.120605
   H (  4)  1.091455  2.114930  1.769344
   H (  5)  1.089885  2.051824  1.766887  1.762821
   C (  6)  2.428574  1.444614  2.745047  2.740360  3.338512
   H (  7)  2.076777  1.092708  2.454809  3.012579  2.349558  2.076777
   H (  8)  2.075190  1.092668  3.015329  2.442218  2.346504  2.075190
   H (  9)  2.745048  2.120605  2.612482  3.150768  3.719378  1.091182
   H ( 10)  3.338511  2.051824  3.719378  3.711468  4.100270  1.089885
   H ( 11)  2.740360  2.114931  3.150768  2.601649  3.711469  1.091455
             H (  7)   H (  8)   H (  9)   H ( 10)
   H (  8)  1.745700
   H (  9)  2.454809  3.015329
   H ( 10)  2.349557  2.346503  1.766887
   H ( 11)  3.012579  2.442218  1.769344  1.762821
 
 A cutoff of  1.0D-09 yielded   2540 shell pairs
 There are     22646 function pairs (     27851 Cartesian)
 Smallest overlap matrix eigenvalue = 6.29E-05

 Scale SEOQF with 1.000000e-01/1.000000e-01/1.000000e-01

 Standard Electronic Orientation quadrupole field applied
 Nucleus-field energy     =     0.0000000006 hartrees
 Requested basis set is 6-31G(d)
 There are 28 shells and 58 basis functions
 A cutoff of  1.0D-09 yielded    402 shell pairs
 There are      1773 function pairs (      1968 Cartesian)
 Smallest overlap matrix eigenvalue = 5.20E-03
 Guess from superposition of atomic densities
 Warning:  Energy on first SCF cycle will be non-variational
 SAD guess density has 26.000000 electrons
 Long-range K will be added via erf
 Coulomb attenuation parameter = 0.2 bohr**(-1)
 A restricted hybrid HF-DFT SCF calculation will be
 performed using Relaxed Constraint Minimization + Pulay DIIS
 Exchange:     0.2220 Hartree-Fock + 1.0000 wB97X-D + LR-HF
 Correlation:  1.0000 wB97X-D
 Using Euler-Maclaurin-Lebedev (75,302) quadrature formula
 Dispersion:   Grimme D
 SCF converges when DIIS error is below 1.0E-04
 using 3 threads for integral computing
 -------------------------------------------------------
 OpenMP Integral computing Module                
 Release: version 1.0, May 2013, Q-Chem Inc. Pittsburgh 
 -------------------------------------------------------
 using 3 threads for integral computing
 -------------------------------------------------------
 OpenMP Integral computing Module                
 Release: version 1.0, May 2013, Q-Chem Inc. Pittsburgh 
 -------------------------------------------------------
 ---------------------------------------
  Cycle       Energy         DIIS Error
 ---------------------------------------
    1    -119.8626130271      1.08E-01
    2    -119.0479712773      1.01E-02
    3    -119.0734018976      2.42E-03
    4    -119.0915902029      1.65E-03
    5    -119.0922383468      2.34E-04 Done RCA. Switching to DIIS
    6    -119.0927397500      1.73E-04
    7    -119.0927525548      4.67E-06 Convergence criterion met
 ---------------------------------------
 SCF time:  CPU 32.54 s  wall 11.20 s
 SCF   energy in the small basis set = -119.09275255
 Total energy in the small basis set = -119.09275255
 ----------------------------------------------------
  Cycle       Energy    
 ----------------------------------------------------
    1     -16.6116226272     -1.66E+01
 Long-range K will be added via erf
 Coulomb attenuation parameter = 0.2 bohr**(-1)
 A restricted hybrid HF-DFT SCF calculation will be
 performed using Relaxed Constraint Minimization + Pulay DIIS
 Exchange:     0.2220 Hartree-Fock + 1.0000 wB97X-D + LR-HF
 Correlation:  1.0000 wB97X-D
 Using Euler-Maclaurin-Lebedev (75,302) quadrature formula
 Dispersion:   Grimme D
 SCF converges when DIIS error is below 1.0E-05
 Basis2 calculation detected. Using small basis as guess for larger.
 SCFMinFind is unable to tell whether the solution found is close.
 Resetting ReadMinima to 0 and attempting to follow guess.
 SCFMinFind following SCF Guess.
 using 3 threads for integral computing
 -------------------------------------------------------
 OpenMP Integral computing Module                
 Release: version 1.0, May 2013, Q-Chem Inc. Pittsburgh 
 -------------------------------------------------------
 using 3 threads for integral computing
 -------------------------------------------------------
 OpenMP Integral computing Module                
 Release: version 1.0, May 2013, Q-Chem Inc. Pittsburgh 
 -------------------------------------------------------
 ---------------------------------------
  Cycle       Energy         DIIS Error
 ---------------------------------------
    1    -119.1129424268      4.21E-03
    2    -119.1350066455      6.07E-04 Done RCA. Switching to DIIS
    3    -119.1358133828      4.38E-04
    4    -119.1368535234      4.74E-05
    5    -119.1368691424      1.03E-05
    6    -119.1368698787      3.39E-06 Convergence criterion met
 ---------------------------------------
 SCF time:  CPU 99.41 s  wall 33.57 s
 SCF   energy in the final basis set = -119.13686988
 Total energy in the final basis set = -119.13686988
 
 --------------------------------------------------------------
 
                    Orbital Energies (a.u.)
 --------------------------------------------------------------
 
 Alpha MOs
 -- Occupied --
-10.2606 -10.2576 -10.2575  -0.9044  -0.7842  -0.6706  -0.5590  -0.5338
 -0.4970  -0.4650  -0.4183  -0.4142  -0.3990
 -- Virtual --
  0.0682   0.0875   0.0908   0.0964   0.1255   0.1300   0.1335   0.1410
  0.1432   0.1712   0.1734   0.1914   0.2373   0.2377   0.2434   0.2645
  0.2821   0.2851   0.3205   0.3212   0.3526   0.3715   0.4616   0.4698
  0.4717   0.5040   0.5090   0.5172   0.5331   0.5585   0.5793   0.5799
  0.6184   0.6507   0.6595   0.6719   0.6794   0.6920   0.7113   0.7283
  0.7374   0.7782   0.8239   0.8618   0.8706   0.8731   0.9138   0.9672
  1.0048   1.0575   1.0604   1.1463   1.1788   1.1914   1.2054   1.2075
  1.2497   1.2565   1.2846   1.2926   1.2928   1.3009   1.3574   1.3879
  1.4013   1.4217   1.4293   1.4452   1.4662   1.4671   1.4776   1.5126
  1.5188   1.5915   1.6182   1.6216   1.6311   1.6472   1.6912   1.6975
  1.7170   2.3881   2.4960   2.5238   2.5464   2.5795   2.5832   2.6239
  2.6977   2.7028   2.8293   2.8599   2.8972   2.9102   2.9363   2.9633
  2.9673   2.9811   2.9848   3.0130   3.0472   3.0636   3.0790   3.1174
  3.1351   3.1609   3.1612   3.2026   3.2110   3.2446   3.2816   3.3052
  3.3201   3.3294   3.3322   3.3696   3.3858   3.3867   3.4301   3.4802
  3.4844   3.5107   3.5624   3.5690   3.5796   3.5928   3.6214   3.6313
  3.6338   3.6835   3.6889   3.7557   3.8279   3.8519   3.8805   3.9537
  3.9547   3.9626   3.9632   3.9902   4.0209   4.0336   4.0425   4.0882
  4.1232   4.1444   4.1663   4.1713   4.1797   4.1997   4.2056   4.2111
  4.2315   4.2882   4.3154   4.4001   4.4048   4.4675   4.4770   4.5027
  4.5485   4.6030   4.6595   4.6605   4.7348   4.8013   4.8612   4.8792
  4.9396   4.9702   4.9717   4.9906   5.0475   5.0539   5.0674   5.1764
  5.2266   5.3005   5.3069   5.3339   5.3410   5.3714   5.4084   5.4099
  5.4323   5.4733   5.5457   5.5626   5.5880   5.6721   5.7154   5.9580
  6.1278   6.3942   6.3981   6.4012   6.4398   6.4880  25.2625  25.5260
 25.5870
 --------------------------------------------------------------
 
 -----------------------------------------------------------------
                    Cartesian Multipole Moments
 -----------------------------------------------------------------
    Charge (ESU x 10^10)
                -0.0000
    Dipole Moment (Debye)
         X      -0.0000      Y       0.0038      Z      -0.1401
       Tot       0.1402
    Quadrupole Moments (Debye-Ang)
        XX     -22.5860     XY      -0.0000     YY     -21.2008
        XZ       0.0000     YZ      -0.0173     ZZ     -21.7444
    Octopole Moments (Debye-Ang^2)
       XXX       0.0000    XXY       0.0317    XYY      -0.0000
       YYY       0.0881    XXZ      -1.8608    XYZ      -0.0000
       YYZ       0.2100    XZZ      -0.0000    YZZ       0.0040
       ZZZ      -1.3559
    Hexadecapole Moments (Debye-Ang^3)
      XXXX    -194.8415   XXXY       0.0000   XXYY     -39.7721
      XYYY       0.0000   YYYY     -44.0364   XXXZ       0.0000
      XXYZ      -0.0494   XYYZ       0.0000   YYYZ       0.0018
      XXZZ     -41.9613   XYZZ       0.0000   YYZZ     -16.7508
      XZZZ       0.0000   YZZZ      -0.0118   ZZZZ     -68.7570
 -----------------------------------------------------------------
Archival summary:
1\1\cn0821\SP\ProcedureUnspecified\BasisUnspecified\38\r0852400\SunApr1205:55:312020SunApr1205:55:312020\0\\#,ProcedureUnspecified,BasisUnspecified,\\0,1\C\H,1,1.09267\H,1,1.09271,2,106.033\C,1,1.44461,2,108.957,3,117.281,0\H,4,1.08988,1,107.277,2,-57.5786,0\H,4,1.09118,1,112.754,2,-176.616,0\H,4,1.09146,1,112.264,2,60.7026,0\C,1,1.44461,2,108.957,3,-117.281,0\H,8,1.08988,1,107.277,2,57.5786,0\H,8,1.09118,1,112.754,2,176.616,0\H,8,1.09146,1,112.264,2,-60.7026,0\\\@

 Total job time:  48.98s(wall), 137.07s(cpu) 
 Sun Apr 12 05:55:31 2020

        *************************************************************
        *                                                           *
        *  Thank you very much for using Q-Chem.  Have a nice day.  *
        *                                                           *
        *************************************************************


