                  Welcome to Q-Chem
     A Quantum Leap Into The Future Of Chemistry


 Q-Chem 5.2 (devel), Q-Chem, Inc., Pleasanton, CA (2019)

 Yihan Shao,  Zhengting Gan,  E. Epifanovsky,  A. T. B. Gilbert,  M. Wormit,  
 J. Kussmann,  A. W. Lange,  A. Behn,  Jia Deng,  Xintian Feng,  D. Ghosh,  
 M. Goldey,  P. R. Horn,  L. D. Jacobson,  I. Kaliman,  T. Kus,  A. Landau,  
 Jie Liu,  E. I. Proynov,  R. M. Richard,  R. P. Steele,  E. J. Sundstrom,  
 H. L. Woodcock III,  P. M. Zimmerman,  D. Zuev,  B. Alam,  B. Albrecht,  
 E. Alguire,  S. A. Baeppler,  D. Barton,  Z. Benda,  Y. A. Bernard,  
 E. J. Berquist,  K. B. Bravaya,  H. Burton,  K. Carter-Fenk,  D. Casanova,  
 Chun-Min Chang,  Yunqing Chen,  A. Chien,  K. D. Closser,  M. P. Coons,  
 S. Coriani,  S. Dasgupta,  A. L. Dempwolff,  M. Diedenhofen,  Hainam Do,  
 R. G. Edgar,  Po-Tung Fang,  S. Faraji,  S. Fatehi,  Qingguo Feng,  
 J. Fosso-Tande,  J. Gayvert,  Qinghui Ge,  A. Ghysels,  G. Gidofalvi,  
 J. Gomes,  J. Gonthier,  A. Gunina,  D. Hait,  M. W. D. Hanson-Heine,  
 P. H. P. Harbach,  A. W. Hauser,  M. F. Herbst,  J. E. Herr,  
 E. G. Hohenstein,  Z. C. Holden,  Kerwin Hui,  B. C. Huynh,  T.-C. Jagau,  
 Hyunjun Ji,  B. Kaduk,  K. Khistyaev,  Jaehoon Kim,  P. Klunzinger,  K. Koh,  
 D. Kosenkov,  L. Koulias,  T. Kowalczyk,  C. M. Krauter,  A. Kunitsa,  
 Ka Un Lao,  A. Laurent,  K. V. Lawler,  Joonho Lee,  D. Lefrancois,  
 S. Lehtola,  D. S. Levine,  Yi-Pei Li,  You-Sheng Lin,  Fenglai Liu,  
 Kuan-Yu Liu,  E. Livshits,  M. Loipersberger,  A. Luenser,  P. Manohar,  
 E. Mansoor,  S. F. Manzer,  Shan-Ping Mao,  Yuezhi Mao,  N. Mardirossian,  
 A. V. Marenich,  T. Markovich,  L. A. Martinez-Martinez,  S. A. Maurer,  
 N. J. Mayhall,  S. C. McKenzie,  J.-M. Mewes,  P. Morgante,  A. F. Morrison,  
 J. W. Mullinax,  K. Nanda,  T. S. Nguyen-Beck,  R. Olivares-Amaya,  
 J. A. Parkhill,  S. K. Paul,  Zheng Pei,  T. M. Perrine,  F. Plasser,  
 P. Pokhilko,  S. Prager,  A. Prociuk,  E. Ramos,  B. Rana,  D. R. Rehn,  
 F. Rob,  M. Scheurer,  M. Schneider,  N. Sergueev,  S. M. Sharada,  
 S. Sharma,  D. W. Small,  T. Stauch,  C. J. Stein,  T. Stein,  Yu-Chuan Su,  
 S. P. Veccham,  A. J. W. Thom,  A. Tkatchenko,  T. Tsuchimochi,  
 N. M. Tubman,  L. Vogt,  M. L. Vidal,  O. Vydrov,  M. A. Watson,  J. Wenzel,  
 M. de Wergifosse,  T. A. Wesolowski,  A. White,  J. Witte,  A. Yamada,  
 Jun Yang,  K. Yao,  S. Yeganeh,  S. R. Yost,  Zhi-Qiang You,  A. Zech,  
 Igor Ying Zhang,  Xing Zhang,  Yan Zhao,  Ying Zhu,  B. R. Brooks,  
 G. K. L. Chan,  C. J. Cramer,  M. S. Gordon,  W. J. Hehre,  A. Klamt,  
 M. W. Schmidt,  C. D. Sherrill,  D. G. Truhlar,  A. Aspuru-Guzik,  R. Baer,  
 A. T. Bell,  N. A. Besley,  Jeng-Da Chai,  A. E. DePrince, III,  
 R. A. DiStasio Jr.,  A. Dreuw,  B. D. Dunietz,  T. R. Furlani,  
 Chao-Ping Hsu,  Yousung Jung,  Jing Kong,  D. S. Lambrecht,  WanZhen Liang,  
 C. Ochsenfeld,  V. A. Rassolov,  L. V. Slipchenko,  J. E. Subotnik,  
 T. Van Voorhis,  J. M. Herbert,  A. I. Krylov,  P. M. W. Gill,  M. Head-Gordon

 Contributors to earlier versions of Q-Chem not listed above: 
 R. D. Adamson,  B. Austin,  J. Baker,  G. J. O. Beran,  K. Brandhorst,  
 S. T. Brown,  E. F. C. Byrd,  A. K. Chakraborty,  C.-L. Cheng,  
 Siu Hung Chien,  D. M. Chipman,  D. L. Crittenden,  H. Dachsel,  
 R. J. Doerksen,  A. D. Dutoi,  L. Fusti-Molnar,  W. A. Goddard III,  
 A. Golubeva-Zadorozhnaya,  S. R. Gwaltney,  G. Hawkins,  A. Heyden,  
 S. Hirata,  G. Kedziora,  F. J. Keil,  C. Kelley,  Jihan Kim,  R. A. King,  
 R. Z. Khaliullin,  P. P. Korambath,  W. Kurlancheek,  A. M. Lee,  M. S. Lee,  
 S. V. Levchenko,  Ching Yeh Lin,  D. Liotard,  R. C. Lochan,  I. Lotan,  
 P. E. Maslen,  N. Nair,  D. P. O'Neill,  D. Neuhauser,  E. Neuscamman,  
 C. M. Oana,  R. Olson,  B. Peters,  R. Peverati,  P. A. Pieniazek,  
 Y. M. Rhee,  J. Ritchie,  M. A. Rohrdanz,  E. Rosta,  N. J. Russ,  
 H. F. Schaefer III,  N. E. Schultz,  N. Shenvi,  A. C. Simmonett,  A. Sodt,  
 D. Stuck,  K. S. Thanthiriwatte,  V. Vanovschi,  Tao Wang,  A. Warshel,  
 C. F. Williams,  Q. Wu,  X. Xu,  W. Zhang

 Please cite Q-Chem as follows:
 Y. Shao et al., Mol. Phys. 113, 184-215 (2015)
 DOI: 10.1080/00268976.2014.952696

 Q-Chem 5.2.2 for Intel X86 EM64T Linux

 Parts of Q-Chem use Armadillo 9.800.1 (Horizon Scraper).
 http://arma.sourceforge.net/

 Q-Chem begins on Sun Apr 12 06:27:38 2020  

Host: cn0821
0

     Scratch files written to /tmp/ypli/6721342.srvc1/qchem177902//
Warning:  Did not find "$end" marker in "$molecule" section

Checking the input file for inconsistencies... 	...done.

--------------------------------------------------------------
User input:
--------------------------------------------------------------
$rem
   JOBTYPE  sp
   EXCHANGE   omegaB97X-D
   BASIS   6-311+G(2df,2pd)
   max_scf_cycles   250
   geom_opt_max_cycles   1500
   basis2 6-31G*
   scf_algorithm rca_diis
   SYM_IGNORE  TRUE
   print_input   true
   geom_opt_dmax   80
   pop_mulliken false
   XC_GRID 000075000302
$end

$molecule
0 1
C       1.2483001793     -0.0292860073     0.3296227758
C       0.0000000619     0.0250338873     -0.6297483410
H       1.4449477218     -0.9033203022     0.9482353401
H       1.3940082586     0.8814595721     0.9132879815
H       2.0388856200     0.0334295298     -0.4247312338
C       -1.2483002643     -0.0292859806     0.3296228687
H       -0.0000002828     -0.8729527592     -1.2551537525
H       0.0000000927     0.8833533597     -1.3068827770
H       -1.4449476148     -0.9033202971     0.9482354094
H       -2.0388853750     0.0334301249     -0.4247313832
H       -1.3940084580     0.8814595385     0.9132881307
--------------------------------------------------------------
 ----------------------------------------------------------------
             Standard Nuclear Orientation (Angstroms)
    I     Atom           X                Y                Z
 ----------------------------------------------------------------
    1      C       1.2483001793    -0.0292860073     0.3296227758
    2      C       0.0000000619     0.0250338873    -0.6297483410
    3      H       1.4449477218    -0.9033203022     0.9482353401
    4      H       1.3940082586     0.8814595721     0.9132879815
    5      H       2.0388856200     0.0334295298    -0.4247312338
    6      C      -1.2483002643    -0.0292859806     0.3296228687
    7      H      -0.0000002828    -0.8729527592    -1.2551537525
    8      H       0.0000000927     0.8833533597    -1.3068827770
    9      H      -1.4449476148    -0.9033202971     0.9482354094
   10      H      -2.0388853750     0.0334301249    -0.4247313832
   11      H      -1.3940084580     0.8814595385     0.9132881307
 ----------------------------------------------------------------
 Nuclear Repulsion Energy =          81.58536836 hartrees
 There are       13 alpha and       13 beta electrons
 Requested basis set is 6-311+G(2df,2pd)
 There are 72 shells and 214 basis functions

 Total QAlloc Memory Limit   2000 MB
 Mega-Array Size       188 MB
 MEM_STATIC part       192 MB

                       Distance Matrix (Angstroms)
             C (  1)   C (  2)   H (  3)   H (  4)   H (  5)   C (  6)
   C (  2)  1.575308
   H (  3)  1.088709  2.332327
   H (  4)  1.091491  2.248930  1.785849
   H (  5)  1.094536  2.049184  1.765021  1.710356
   C (  6)  2.496600  1.575309  2.898310  2.855156  3.373214
   H (  7)  2.186674  1.094309  2.635094  3.118231  2.380795  2.186674
   H (  8)  2.251514  1.093263  3.219570  2.621530  2.378574  2.251514
   H (  9)  2.898310  2.332327  2.889895  3.353555  3.860004  1.088709
   H ( 10)  3.373214  2.049184  3.860004  3.780768  4.077771  1.094536
   H ( 11)  2.855156  2.248930  3.353555  2.788017  3.780769  1.091491
             H (  7)   H (  8)   H (  9)   H ( 10)
   H (  8)  1.757068
   H (  9)  2.635094  3.219571
   H ( 10)  2.380795  2.378574  1.765022
   H ( 11)  3.118231  2.621531  1.785849  1.710356
 
 A cutoff of  1.0D-09 yielded   2520 shell pairs
 There are     22490 function pairs (     27667 Cartesian)
 Smallest overlap matrix eigenvalue = 9.86E-05

 Scale SEOQF with 1.000000e-01/1.000000e-01/1.000000e-01

 Standard Electronic Orientation quadrupole field applied
 Nucleus-field energy     =     0.0000000004 hartrees
 Requested basis set is 6-31G(d)
 There are 28 shells and 58 basis functions
 A cutoff of  1.0D-09 yielded    402 shell pairs
 There are      1773 function pairs (      1968 Cartesian)
 Smallest overlap matrix eigenvalue = 7.06E-03
 Guess from superposition of atomic densities
 Warning:  Energy on first SCF cycle will be non-variational
 SAD guess density has 26.000000 electrons
 Long-range K will be added via erf
 Coulomb attenuation parameter = 0.2 bohr**(-1)
 A restricted hybrid HF-DFT SCF calculation will be
 performed using Relaxed Constraint Minimization + Pulay DIIS
 Exchange:     0.2220 Hartree-Fock + 1.0000 wB97X-D + LR-HF
 Correlation:  1.0000 wB97X-D
 Using Euler-Maclaurin-Lebedev (75,302) quadrature formula
 Dispersion:   Grimme D
 SCF converges when DIIS error is below 1.0E-04
 using 3 threads for integral computing
 -------------------------------------------------------
 OpenMP Integral computing Module                
 Release: version 1.0, May 2013, Q-Chem Inc. Pittsburgh 
 -------------------------------------------------------
 using 3 threads for integral computing
 -------------------------------------------------------
 OpenMP Integral computing Module                
 Release: version 1.0, May 2013, Q-Chem Inc. Pittsburgh 
 -------------------------------------------------------
 ---------------------------------------
  Cycle       Energy         DIIS Error
 ---------------------------------------
    1    -119.4974496988      9.65E-02
    2    -119.0452628953      8.82E-03
    3    -119.0654072815      2.42E-03
    4    -119.0788626935      1.66E-03
    5    -119.0795325105      2.54E-04 Done RCA. Switching to DIIS
    6    -119.0800319624      1.87E-04
    7    -119.0800470613      5.82E-06 Convergence criterion met
 ---------------------------------------
 SCF time:  CPU 32.94 s  wall 11.35 s
 SCF   energy in the small basis set = -119.08004706
 Total energy in the small basis set = -119.08004706
 ----------------------------------------------------
  Cycle       Energy    
 ----------------------------------------------------
    1     -16.5011716794     -1.65E+01
 Long-range K will be added via erf
 Coulomb attenuation parameter = 0.2 bohr**(-1)
 A restricted hybrid HF-DFT SCF calculation will be
 performed using Relaxed Constraint Minimization + Pulay DIIS
 Exchange:     0.2220 Hartree-Fock + 1.0000 wB97X-D + LR-HF
 Correlation:  1.0000 wB97X-D
 Using Euler-Maclaurin-Lebedev (75,302) quadrature formula
 Dispersion:   Grimme D
 SCF converges when DIIS error is below 1.0E-05
 Basis2 calculation detected. Using small basis as guess for larger.
 SCFMinFind is unable to tell whether the solution found is close.
 Resetting ReadMinima to 0 and attempting to follow guess.
 SCFMinFind following SCF Guess.
 using 3 threads for integral computing
 -------------------------------------------------------
 OpenMP Integral computing Module                
 Release: version 1.0, May 2013, Q-Chem Inc. Pittsburgh 
 -------------------------------------------------------
 using 3 threads for integral computing
 -------------------------------------------------------
 OpenMP Integral computing Module                
 Release: version 1.0, May 2013, Q-Chem Inc. Pittsburgh 
 -------------------------------------------------------
 ---------------------------------------
  Cycle       Energy         DIIS Error
 ---------------------------------------
    1    -119.0991837772      4.21E-03
    2    -119.1212621506      6.09E-04 Done RCA. Switching to DIIS
    3    -119.1221182905      4.29E-04
    4    -119.1231317997      4.62E-05
    5    -119.1231471579      8.25E-06 Convergence criterion met
 ---------------------------------------
 SCF time:  CPU 84.71 s  wall 28.65 s
 SCF   energy in the final basis set = -119.12314716
 Total energy in the final basis set = -119.12314716
 
 --------------------------------------------------------------
 
                    Orbital Energies (a.u.)
 --------------------------------------------------------------
 
 Alpha MOs
 -- Occupied --
-10.2863 -10.2652 -10.2652  -0.8702  -0.7725  -0.6827  -0.5394  -0.5041
 -0.4913  -0.4650  -0.4422  -0.4159  -0.3717
 -- Virtual --
  0.0677   0.0855   0.0884   0.1006   0.1265   0.1300   0.1332   0.1368
  0.1443   0.1695   0.1707   0.1903   0.2297   0.2412   0.2432   0.2799
  0.2835   0.2841   0.2848   0.3080   0.3391   0.3446   0.4494   0.4602
  0.4754   0.5141   0.5182   0.5335   0.5417   0.5578   0.5864   0.5864
  0.6009   0.6011   0.6495   0.6539   0.6625   0.6737   0.7040   0.7232
  0.7306   0.7657   0.7966   0.8301   0.8689   0.8829   0.9120   0.9515
  0.9900   1.0388   1.0575   1.1431   1.1669   1.1679   1.1854   1.2040
  1.2144   1.2383   1.2430   1.2604   1.2710   1.2799   1.3110   1.3637
  1.3886   1.4233   1.4396   1.4469   1.4598   1.4678   1.4892   1.5054
  1.5118   1.5563   1.5906   1.5969   1.6294   1.6538   1.6802   1.6928
  1.7150   2.3605   2.4278   2.4587   2.5073   2.5387   2.5572   2.6058
  2.6146   2.6714   2.7752   2.8099   2.8134   2.8728   2.8851   2.9337
  2.9367   2.9403   3.0166   3.0229   3.0522   3.0671   3.0838   3.1119
  3.1125   3.1633   3.1668   3.2041   3.2054   3.2492   3.2507   3.3029
  3.3152   3.3258   3.3432   3.3550   3.3692   3.3816   3.3919   3.4115
  3.4341   3.4963   3.5122   3.5219   3.5582   3.5869   3.6054   3.6170
  3.6199   3.6524   3.6709   3.6866   3.7528   3.7815   3.8290   3.8403
  3.8445   3.8837   3.8843   3.9326   3.9977   4.0100   4.0252   4.0256
  4.0717   4.0731   4.0968   4.1163   4.1391   4.1638   4.1787   4.2046
  4.2168   4.2261   4.2707   4.2881   4.3059   4.3876   4.4179   4.4628
  4.4754   4.5161   4.5278   4.5711   4.6884   4.7954   4.8313   4.8514
  4.8791   4.8797   4.9426   4.9853   5.0109   5.0534   5.1096   5.1234
  5.1524   5.1938   5.2005   5.2180   5.3164   5.3166   5.3399   5.3888
  5.4162   5.4163   5.4371   5.4539   5.4946   5.5040   5.5573   5.6167
  5.8771   6.3542   6.3972   6.4113   6.4317   6.4431  25.1165  25.3880
 25.4371
 --------------------------------------------------------------
 
 -----------------------------------------------------------------
                    Cartesian Multipole Moments
 -----------------------------------------------------------------
    Charge (ESU x 10^10)
                 0.0000
    Dipole Moment (Debye)
         X       0.0000      Y       0.0204      Z      -0.2033
       Tot       0.2043
    Quadrupole Moments (Debye-Ang)
        XX     -23.0960     XY      -0.0000     YY     -21.1550
        XZ       0.0000     YZ      -0.3738     ZZ     -21.2477
    Octopole Moments (Debye-Ang^2)
       XXX       0.0000    XXY       0.0321    XYY       0.0000
       YYY       0.3910    XXZ      -0.4468    XYZ       0.0000
       YYZ       0.1164    XZZ      -0.0000    YZZ       0.1211
       ZZZ      -2.1936
    Hexadecapole Moments (Debye-Ang^3)
      XXXX    -214.1586   XXXY      -0.0000   XXYY     -40.8337
      XYYY       0.0000   YYYY     -43.8720   XXXZ       0.0000
      XXYZ      -0.6644   XYYZ       0.0000   YYYZ       0.5078
      XXZZ     -44.6126   XYZZ       0.0000   YYZZ     -17.4660
      XZZZ       0.0000   YZZZ      -0.1588   ZZZZ     -76.7776
 -----------------------------------------------------------------
Archival summary:
1\1\cn0821\SP\ProcedureUnspecified\BasisUnspecified\38\r0852400\SunApr1206:28:222020SunApr1206:28:222020\0\\#,ProcedureUnspecified,BasisUnspecified,\\0,1\C\H,1,1.09326\H,1,1.09431,2,106.874\C,1,1.57531,2,113.845,3,119.96,0\H,4,1.08871,1,121.121,2,-170.96,0\H,4,1.09149,1,113.745,2,54.4575,0\H,4,1.09454,1,98.6653,2,-53.899,0\C,1,1.57531,2,113.845,3,-119.96,0\H,8,1.08871,1,121.121,2,170.96,0\H,8,1.09149,1,113.745,2,-54.4575,0\H,8,1.09454,1,98.6653,2,53.899,0\\\@

 Total job time:  44.18s(wall), 122.74s(cpu) 
 Sun Apr 12 06:28:22 2020

        *************************************************************
        *                                                           *
        *  Thank you very much for using Q-Chem.  Have a nice day.  *
        *                                                           *
        *************************************************************


