                  Welcome to Q-Chem
     A Quantum Leap Into The Future Of Chemistry


 Q-Chem 5.2 (devel), Q-Chem, Inc., Pleasanton, CA (2019)

 Yihan Shao,  Zhengting Gan,  E. Epifanovsky,  A. T. B. Gilbert,  M. Wormit,  
 J. Kussmann,  A. W. Lange,  A. Behn,  Jia Deng,  Xintian Feng,  D. Ghosh,  
 M. Goldey,  P. R. Horn,  L. D. Jacobson,  I. Kaliman,  T. Kus,  A. Landau,  
 Jie Liu,  E. I. Proynov,  R. M. Richard,  R. P. Steele,  E. J. Sundstrom,  
 H. L. Woodcock III,  P. M. Zimmerman,  D. Zuev,  B. Alam,  B. Albrecht,  
 E. Alguire,  S. A. Baeppler,  D. Barton,  Z. Benda,  Y. A. Bernard,  
 E. J. Berquist,  K. B. Bravaya,  H. Burton,  K. Carter-Fenk,  D. Casanova,  
 Chun-Min Chang,  Yunqing Chen,  A. Chien,  K. D. Closser,  M. P. Coons,  
 S. Coriani,  S. Dasgupta,  A. L. Dempwolff,  M. Diedenhofen,  Hainam Do,  
 R. G. Edgar,  Po-Tung Fang,  S. Faraji,  S. Fatehi,  Qingguo Feng,  
 J. Fosso-Tande,  J. Gayvert,  Qinghui Ge,  A. Ghysels,  G. Gidofalvi,  
 J. Gomes,  J. Gonthier,  A. Gunina,  D. Hait,  M. W. D. Hanson-Heine,  
 P. H. P. Harbach,  A. W. Hauser,  M. F. Herbst,  J. E. Herr,  
 E. G. Hohenstein,  Z. C. Holden,  Kerwin Hui,  B. C. Huynh,  T.-C. Jagau,  
 Hyunjun Ji,  B. Kaduk,  K. Khistyaev,  Jaehoon Kim,  P. Klunzinger,  K. Koh,  
 D. Kosenkov,  L. Koulias,  T. Kowalczyk,  C. M. Krauter,  A. Kunitsa,  
 Ka Un Lao,  A. Laurent,  K. V. Lawler,  Joonho Lee,  D. Lefrancois,  
 S. Lehtola,  D. S. Levine,  Yi-Pei Li,  You-Sheng Lin,  Fenglai Liu,  
 Kuan-Yu Liu,  E. Livshits,  M. Loipersberger,  A. Luenser,  P. Manohar,  
 E. Mansoor,  S. F. Manzer,  Shan-Ping Mao,  Yuezhi Mao,  N. Mardirossian,  
 A. V. Marenich,  T. Markovich,  L. A. Martinez-Martinez,  S. A. Maurer,  
 N. J. Mayhall,  S. C. McKenzie,  J.-M. Mewes,  P. Morgante,  A. F. Morrison,  
 J. W. Mullinax,  K. Nanda,  T. S. Nguyen-Beck,  R. Olivares-Amaya,  
 J. A. Parkhill,  S. K. Paul,  Zheng Pei,  T. M. Perrine,  F. Plasser,  
 P. Pokhilko,  S. Prager,  A. Prociuk,  E. Ramos,  B. Rana,  D. R. Rehn,  
 F. Rob,  M. Scheurer,  M. Schneider,  N. Sergueev,  S. M. Sharada,  
 S. Sharma,  D. W. Small,  T. Stauch,  C. J. Stein,  T. Stein,  Yu-Chuan Su,  
 S. P. Veccham,  A. J. W. Thom,  A. Tkatchenko,  T. Tsuchimochi,  
 N. M. Tubman,  L. Vogt,  M. L. Vidal,  O. Vydrov,  M. A. Watson,  J. Wenzel,  
 M. de Wergifosse,  T. A. Wesolowski,  A. White,  J. Witte,  A. Yamada,  
 Jun Yang,  K. Yao,  S. Yeganeh,  S. R. Yost,  Zhi-Qiang You,  A. Zech,  
 Igor Ying Zhang,  Xing Zhang,  Yan Zhao,  Ying Zhu,  B. R. Brooks,  
 G. K. L. Chan,  C. J. Cramer,  M. S. Gordon,  W. J. Hehre,  A. Klamt,  
 M. W. Schmidt,  C. D. Sherrill,  D. G. Truhlar,  A. Aspuru-Guzik,  R. Baer,  
 A. T. Bell,  N. A. Besley,  Jeng-Da Chai,  A. E. DePrince, III,  
 R. A. DiStasio Jr.,  A. Dreuw,  B. D. Dunietz,  T. R. Furlani,  
 Chao-Ping Hsu,  Yousung Jung,  Jing Kong,  D. S. Lambrecht,  WanZhen Liang,  
 C. Ochsenfeld,  V. A. Rassolov,  L. V. Slipchenko,  J. E. Subotnik,  
 T. Van Voorhis,  J. M. Herbert,  A. I. Krylov,  P. M. W. Gill,  M. Head-Gordon

 Contributors to earlier versions of Q-Chem not listed above: 
 R. D. Adamson,  B. Austin,  J. Baker,  G. J. O. Beran,  K. Brandhorst,  
 S. T. Brown,  E. F. C. Byrd,  A. K. Chakraborty,  C.-L. Cheng,  
 Siu Hung Chien,  D. M. Chipman,  D. L. Crittenden,  H. Dachsel,  
 R. J. Doerksen,  A. D. Dutoi,  L. Fusti-Molnar,  W. A. Goddard III,  
 A. Golubeva-Zadorozhnaya,  S. R. Gwaltney,  G. Hawkins,  A. Heyden,  
 S. Hirata,  G. Kedziora,  F. J. Keil,  C. Kelley,  Jihan Kim,  R. A. King,  
 R. Z. Khaliullin,  P. P. Korambath,  W. Kurlancheek,  A. M. Lee,  M. S. Lee,  
 S. V. Levchenko,  Ching Yeh Lin,  D. Liotard,  R. C. Lochan,  I. Lotan,  
 P. E. Maslen,  N. Nair,  D. P. O'Neill,  D. Neuhauser,  E. Neuscamman,  
 C. M. Oana,  R. Olson,  B. Peters,  R. Peverati,  P. A. Pieniazek,  
 Y. M. Rhee,  J. Ritchie,  M. A. Rohrdanz,  E. Rosta,  N. J. Russ,  
 H. F. Schaefer III,  N. E. Schultz,  N. Shenvi,  A. C. Simmonett,  A. Sodt,  
 D. Stuck,  K. S. Thanthiriwatte,  V. Vanovschi,  Tao Wang,  A. Warshel,  
 C. F. Williams,  Q. Wu,  X. Xu,  W. Zhang

 Please cite Q-Chem as follows:
 Y. Shao et al., Mol. Phys. 113, 184-215 (2015)
 DOI: 10.1080/00268976.2014.952696

 Q-Chem 5.2.2 for Intel X86 EM64T Linux

 Parts of Q-Chem use Armadillo 9.800.1 (Horizon Scraper).
 http://arma.sourceforge.net/

 Q-Chem begins on Sun Apr 12 05:27:46 2020  

Host: cn0821
0

     Scratch files written to /tmp/ypli/6721342.srvc1/qchem169029//
Warning:  Did not find "$end" marker in "$molecule" section

Checking the input file for inconsistencies... 	...done.

--------------------------------------------------------------
User input:
--------------------------------------------------------------
$rem
   JOBTYPE  sp
   EXCHANGE   omegaB97X-D
   BASIS   6-311+G(2df,2pd)
   max_scf_cycles   250
   geom_opt_max_cycles   1500
   basis2 6-31G*
   scf_algorithm rca_diis
   SYM_IGNORE  TRUE
   print_input   true
   geom_opt_dmax   80
   pop_mulliken false
   XC_GRID 000075000302
$end

$molecule
0 1
C       1.1513901629     0.0001270298     0.2597068874
C       0.0000000348     -0.0017380092     -0.7211061182
H       1.0585675116     -0.8763043575     0.9052215268
H       1.0560248097     0.8773758051     0.9035107849
H       2.1516566158     -0.0009274947     -0.1710312226
C       -1.1513899774     0.0001271426     0.2597070417
H       -0.0000002858     -0.8796885364     -1.3693479655
H       0.0000000575     0.8808845816     -1.3633170145
H       -1.0585674983     -0.8763044643     0.9052213782
H       -2.1516564039     -0.0009269405     -0.1710313539
H       -1.0560250875     0.8773759095     0.9035110745
--------------------------------------------------------------
 ----------------------------------------------------------------
             Standard Nuclear Orientation (Angstroms)
    I     Atom           X                Y                Z
 ----------------------------------------------------------------
    1      C       1.1513901629     0.0001270298     0.2597068874
    2      C       0.0000000348    -0.0017380092    -0.7211061182
    3      H       1.0585675116    -0.8763043575     0.9052215268
    4      H       1.0560248097     0.8773758051     0.9035107849
    5      H       2.1516566158    -0.0009274947    -0.1710312226
    6      C      -1.1513899774     0.0001271426     0.2597070417
    7      H      -0.0000002858    -0.8796885364    -1.3693479655
    8      H       0.0000000575     0.8808845816    -1.3633170145
    9      H      -1.0585674983    -0.8763044643     0.9052213782
   10      H      -2.1516564039    -0.0009269405    -0.1710313539
   11      H      -1.0560250875     0.8773759095     0.9035110745
 ----------------------------------------------------------------
 Nuclear Repulsion Energy =          84.51907420 hartrees
 There are       13 alpha and       13 beta electrons
 Requested basis set is 6-311+G(2df,2pd)
 There are 72 shells and 214 basis functions

 Total QAlloc Memory Limit   2000 MB
 Mega-Array Size       188 MB
 MEM_STATIC part       192 MB

                       Distance Matrix (Angstroms)
             C (  1)   C (  2)   H (  3)   H (  4)   H (  5)   C (  6)
   C (  2)  1.512513
   H (  3)  1.092446  2.128467
   H (  4)  1.092311  2.127771  1.753683
   H (  5)  1.089068  2.220858  1.766196  1.768182
   C (  6)  2.302780  1.512513  2.463480  2.461042  3.331014
   H (  7)  2.180274  1.091336  2.508833  3.060776  2.614921  2.180274
   H (  8)  2.176152  1.091539  3.058520  2.500742  2.613190  2.176153
   H (  9)  2.463480  2.128467  2.117135  2.747162  3.497162  1.092445
   H ( 10)  3.331014  2.220858  3.497162  3.495036  4.303313  1.089068
   H ( 11)  2.461043  2.127771  2.747162  2.112050  3.495036  1.092311
             H (  7)   H (  8)   H (  9)   H ( 10)
   H (  8)  1.760583
   H (  9)  2.508833  3.058520
   H ( 10)  2.614920  2.613190  1.766196
   H ( 11)  3.060776  2.500742  1.753683  1.768181
 
 A cutoff of  1.0D-09 yielded   2555 shell pairs
 There are     22733 function pairs (     27960 Cartesian)
 Smallest overlap matrix eigenvalue = 7.96E-05

 Scale SEOQF with 1.000000e-01/1.000000e-01/1.000000e-01

 Standard Electronic Orientation quadrupole field applied
 Nucleus-field energy     =     0.0000000002 hartrees
 Requested basis set is 6-31G(d)
 There are 28 shells and 58 basis functions
 A cutoff of  1.0D-09 yielded    402 shell pairs
 There are      1773 function pairs (      1968 Cartesian)
 Smallest overlap matrix eigenvalue = 6.78E-03
 Guess from superposition of atomic densities
 Warning:  Energy on first SCF cycle will be non-variational
 SAD guess density has 26.000000 electrons
 Long-range K will be added via erf
 Coulomb attenuation parameter = 0.2 bohr**(-1)
 A restricted hybrid HF-DFT SCF calculation will be
 performed using Relaxed Constraint Minimization + Pulay DIIS
 Exchange:     0.2220 Hartree-Fock + 1.0000 wB97X-D + LR-HF
 Correlation:  1.0000 wB97X-D
 Using Euler-Maclaurin-Lebedev (75,302) quadrature formula
 Dispersion:   Grimme D
 SCF converges when DIIS error is below 1.0E-04
 using 3 threads for integral computing
 -------------------------------------------------------
 OpenMP Integral computing Module                
 Release: version 1.0, May 2013, Q-Chem Inc. Pittsburgh 
 -------------------------------------------------------
 using 3 threads for integral computing
 -------------------------------------------------------
 OpenMP Integral computing Module                
 Release: version 1.0, May 2013, Q-Chem Inc. Pittsburgh 
 -------------------------------------------------------
 ---------------------------------------
  Cycle       Energy         DIIS Error
 ---------------------------------------
    1    -119.7005326268      1.02E-01
    2    -119.0550612181      9.20E-03
    3    -119.0765744722      2.41E-03
    4    -119.0914653333      1.65E-03
    5    -119.0921177761      2.38E-04 Done RCA. Switching to DIIS
    6    -119.0926147726      1.76E-04
    7    -119.0926281364      5.10E-06 Convergence criterion met
 ---------------------------------------
 SCF time:  CPU 32.79 s  wall 11.33 s
 SCF   energy in the small basis set = -119.09262814
 Total energy in the small basis set = -119.09262814
 ----------------------------------------------------
  Cycle       Energy    
 ----------------------------------------------------
    1     -16.5600145736     -1.66E+01
 Long-range K will be added via erf
 Coulomb attenuation parameter = 0.2 bohr**(-1)
 A restricted hybrid HF-DFT SCF calculation will be
 performed using Relaxed Constraint Minimization + Pulay DIIS
 Exchange:     0.2220 Hartree-Fock + 1.0000 wB97X-D + LR-HF
 Correlation:  1.0000 wB97X-D
 Using Euler-Maclaurin-Lebedev (75,302) quadrature formula
 Dispersion:   Grimme D
 SCF converges when DIIS error is below 1.0E-05
 Basis2 calculation detected. Using small basis as guess for larger.
 SCFMinFind is unable to tell whether the solution found is close.
 Resetting ReadMinima to 0 and attempting to follow guess.
 SCFMinFind following SCF Guess.
 using 3 threads for integral computing
 -------------------------------------------------------
 OpenMP Integral computing Module                
 Release: version 1.0, May 2013, Q-Chem Inc. Pittsburgh 
 -------------------------------------------------------
 using 3 threads for integral computing
 -------------------------------------------------------
 OpenMP Integral computing Module                
 Release: version 1.0, May 2013, Q-Chem Inc. Pittsburgh 
 -------------------------------------------------------
 ---------------------------------------
  Cycle       Energy         DIIS Error
 ---------------------------------------
    1    -119.1122079332      4.21E-03
    2    -119.1341443212      6.08E-04 Done RCA. Switching to DIIS
    3    -119.1349391050      4.41E-04
    4    -119.1359990951      4.59E-05
    5    -119.1360140714      7.97E-06 Convergence criterion met
 ---------------------------------------
 SCF time:  CPU 85.66 s  wall 28.93 s
 SCF   energy in the final basis set = -119.13601407
 Total energy in the final basis set = -119.13601407
 
 --------------------------------------------------------------
 
                    Orbital Energies (a.u.)
 --------------------------------------------------------------
 
 Alpha MOs
 -- Occupied --
-10.2735 -10.2633 -10.2633  -0.8945  -0.7652  -0.6846  -0.5549  -0.5354
 -0.4685  -0.4508  -0.4332  -0.4157  -0.4068
 -- Virtual --
  0.0716   0.0842   0.0879   0.0986   0.1267   0.1324   0.1346   0.1377
  0.1380   0.1693   0.1701   0.1947   0.2158   0.2471   0.2619   0.2705
  0.2769   0.2908   0.3177   0.3190   0.3366   0.3527   0.4650   0.4712
  0.4738   0.4940   0.4948   0.5151   0.5405   0.5727   0.5877   0.5942
  0.6314   0.6320   0.6350   0.6510   0.6613   0.6684   0.7117   0.7237
  0.7377   0.7773   0.8196   0.8342   0.8983   0.9101   0.9127   0.9245
  1.0292   1.0525   1.0809   1.0812   1.1722   1.1824   1.2116   1.2290
  1.2307   1.2454   1.2598   1.2855   1.3037   1.3208   1.3571   1.3843
  1.4110   1.4142   1.4272   1.4329   1.4345   1.4417   1.4747   1.5019
  1.5070   1.5702   1.5899   1.6100   1.6505   1.6785   1.7366   1.7430
  1.7527   2.4452   2.4509   2.4876   2.5158   2.5226   2.5545   2.6012
  2.6669   2.7310   2.8070   2.8322   2.8646   2.9135   2.9209   2.9230
  2.9308   2.9338   2.9842   2.9993   3.0399   3.0547   3.0778   3.1172
  3.1382   3.1425   3.1806   3.2230   3.2431   3.2702   3.2961   3.3111
  3.3262   3.3352   3.3561   3.3621   3.3974   3.4089   3.4166   3.4489
  3.4687   3.4842   3.5156   3.5324   3.5859   3.5882   3.6124   3.6135
  3.6319   3.6357   3.7164   3.7605   3.8059   3.8132   3.8574   3.8759
  3.9538   3.9670   3.9725   3.9842   4.0055   4.0500   4.0605   4.0691
  4.1068   4.1306   4.1338   4.1560   4.1709   4.1876   4.1943   4.2309
  4.2405   4.3097   4.3399   4.3824   4.3847   4.4201   4.4450   4.4453
  4.4495   4.5743   4.6197   4.6334   4.6425   4.8486   4.8662   4.9195
  4.9198   4.9508   4.9697   5.0403   5.0562   5.0671   5.0792   5.0900
  5.1175   5.2719   5.2927   5.2933   5.3198   5.3667   5.3739   5.3750
  5.4000   5.4281   5.4967   5.5001   5.5889   5.6448   5.7035   5.7255
  5.9772   6.3874   6.4114   6.4361   6.4645   6.4767  25.1868  25.4494
 25.4748
 --------------------------------------------------------------
 
 -----------------------------------------------------------------
                    Cartesian Multipole Moments
 -----------------------------------------------------------------
    Charge (ESU x 10^10)
                 0.0000
    Dipole Moment (Debye)
         X      -0.0000      Y      -0.0000      Z      -0.0483
       Tot       0.0483
    Quadrupole Moments (Debye-Ang)
        XX     -22.4952     XY      -0.0000     YY     -21.2821
        XZ      -0.0000     YZ       0.0088     ZZ     -21.8065
    Octopole Moments (Debye-Ang^2)
       XXX       0.0000    XXY      -0.0104    XYY      -0.0000
       YYY       0.0272    XXZ      -0.6794    XYZ      -0.0000
       YYZ       0.8431    XZZ      -0.0000    YZZ      -0.0065
       ZZZ       0.9703
    Hexadecapole Moments (Debye-Ang^3)
      XXXX    -171.0836   XXXY      -0.0000   XXYY     -38.0250
      XYYY       0.0000   YYYY     -43.7718   XXXZ       0.0000
      XXYZ      -0.0067   XYYZ      -0.0000   YYYZ      -0.0153
      XXZZ     -43.0434   XYZZ       0.0000   YYZZ     -18.0095
      XZZZ       0.0000   YZZZ       0.0150   ZZZZ     -78.9623
 -----------------------------------------------------------------
Archival summary:
1\1\cn0821\SP\ProcedureUnspecified\BasisUnspecified\38\r0852400\SunApr1205:28:302020SunApr1205:28:302020\0\\#,ProcedureUnspecified,BasisUnspecified,\\0,1\C\H,1,1.09134\H,1,1.09154,2,107.519\C,1,1.51251,2,112.717,3,-124.385,0\H,4,1.08907,1,116.276,2,60.5497,0\H,4,1.09231,1,108.465,2,-177.164,0\H,4,1.09245,1,108.512,2,-61.5253,0\C,1,1.51251,2,112.717,3,124.385,0\H,8,1.08907,1,116.276,2,-60.5497,0\H,8,1.09231,1,108.465,2,177.164,0\H,8,1.09245,1,108.512,2,61.5253,0\\\@

 Total job time:  44.47s(wall), 123.59s(cpu) 
 Sun Apr 12 05:28:30 2020

        *************************************************************
        *                                                           *
        *  Thank you very much for using Q-Chem.  Have a nice day.  *
        *                                                           *
        *************************************************************


