                  Welcome to Q-Chem
     A Quantum Leap Into The Future Of Chemistry


 Q-Chem 5.2 (devel), Q-Chem, Inc., Pleasanton, CA (2019)

 Yihan Shao,  Zhengting Gan,  E. Epifanovsky,  A. T. B. Gilbert,  M. Wormit,  
 J. Kussmann,  A. W. Lange,  A. Behn,  Jia Deng,  Xintian Feng,  D. Ghosh,  
 M. Goldey,  P. R. Horn,  L. D. Jacobson,  I. Kaliman,  T. Kus,  A. Landau,  
 Jie Liu,  E. I. Proynov,  R. M. Richard,  R. P. Steele,  E. J. Sundstrom,  
 H. L. Woodcock III,  P. M. Zimmerman,  D. Zuev,  B. Alam,  B. Albrecht,  
 E. Alguire,  S. A. Baeppler,  D. Barton,  Z. Benda,  Y. A. Bernard,  
 E. J. Berquist,  K. B. Bravaya,  H. Burton,  K. Carter-Fenk,  D. Casanova,  
 Chun-Min Chang,  Yunqing Chen,  A. Chien,  K. D. Closser,  M. P. Coons,  
 S. Coriani,  S. Dasgupta,  A. L. Dempwolff,  M. Diedenhofen,  Hainam Do,  
 R. G. Edgar,  Po-Tung Fang,  S. Faraji,  S. Fatehi,  Qingguo Feng,  
 J. Fosso-Tande,  J. Gayvert,  Qinghui Ge,  A. Ghysels,  G. Gidofalvi,  
 J. Gomes,  J. Gonthier,  A. Gunina,  D. Hait,  M. W. D. Hanson-Heine,  
 P. H. P. Harbach,  A. W. Hauser,  M. F. Herbst,  J. E. Herr,  
 E. G. Hohenstein,  Z. C. Holden,  Kerwin Hui,  B. C. Huynh,  T.-C. Jagau,  
 Hyunjun Ji,  B. Kaduk,  K. Khistyaev,  Jaehoon Kim,  P. Klunzinger,  K. Koh,  
 D. Kosenkov,  L. Koulias,  T. Kowalczyk,  C. M. Krauter,  A. Kunitsa,  
 Ka Un Lao,  A. Laurent,  K. V. Lawler,  Joonho Lee,  D. Lefrancois,  
 S. Lehtola,  D. S. Levine,  Yi-Pei Li,  You-Sheng Lin,  Fenglai Liu,  
 Kuan-Yu Liu,  E. Livshits,  M. Loipersberger,  A. Luenser,  P. Manohar,  
 E. Mansoor,  S. F. Manzer,  Shan-Ping Mao,  Yuezhi Mao,  N. Mardirossian,  
 A. V. Marenich,  T. Markovich,  L. A. Martinez-Martinez,  S. A. Maurer,  
 N. J. Mayhall,  S. C. McKenzie,  J.-M. Mewes,  P. Morgante,  A. F. Morrison,  
 J. W. Mullinax,  K. Nanda,  T. S. Nguyen-Beck,  R. Olivares-Amaya,  
 J. A. Parkhill,  S. K. Paul,  Zheng Pei,  T. M. Perrine,  F. Plasser,  
 P. Pokhilko,  S. Prager,  A. Prociuk,  E. Ramos,  B. Rana,  D. R. Rehn,  
 F. Rob,  M. Scheurer,  M. Schneider,  N. Sergueev,  S. M. Sharada,  
 S. Sharma,  D. W. Small,  T. Stauch,  C. J. Stein,  T. Stein,  Yu-Chuan Su,  
 S. P. Veccham,  A. J. W. Thom,  A. Tkatchenko,  T. Tsuchimochi,  
 N. M. Tubman,  L. Vogt,  M. L. Vidal,  O. Vydrov,  M. A. Watson,  J. Wenzel,  
 M. de Wergifosse,  T. A. Wesolowski,  A. White,  J. Witte,  A. Yamada,  
 Jun Yang,  K. Yao,  S. Yeganeh,  S. R. Yost,  Zhi-Qiang You,  A. Zech,  
 Igor Ying Zhang,  Xing Zhang,  Yan Zhao,  Ying Zhu,  B. R. Brooks,  
 G. K. L. Chan,  C. J. Cramer,  M. S. Gordon,  W. J. Hehre,  A. Klamt,  
 M. W. Schmidt,  C. D. Sherrill,  D. G. Truhlar,  A. Aspuru-Guzik,  R. Baer,  
 A. T. Bell,  N. A. Besley,  Jeng-Da Chai,  A. E. DePrince, III,  
 R. A. DiStasio Jr.,  A. Dreuw,  B. D. Dunietz,  T. R. Furlani,  
 Chao-Ping Hsu,  Yousung Jung,  Jing Kong,  D. S. Lambrecht,  WanZhen Liang,  
 C. Ochsenfeld,  V. A. Rassolov,  L. V. Slipchenko,  J. E. Subotnik,  
 T. Van Voorhis,  J. M. Herbert,  A. I. Krylov,  P. M. W. Gill,  M. Head-Gordon

 Contributors to earlier versions of Q-Chem not listed above: 
 R. D. Adamson,  B. Austin,  J. Baker,  G. J. O. Beran,  K. Brandhorst,  
 S. T. Brown,  E. F. C. Byrd,  A. K. Chakraborty,  C.-L. Cheng,  
 Siu Hung Chien,  D. M. Chipman,  D. L. Crittenden,  H. Dachsel,  
 R. J. Doerksen,  A. D. Dutoi,  L. Fusti-Molnar,  W. A. Goddard III,  
 A. Golubeva-Zadorozhnaya,  S. R. Gwaltney,  G. Hawkins,  A. Heyden,  
 S. Hirata,  G. Kedziora,  F. J. Keil,  C. Kelley,  Jihan Kim,  R. A. King,  
 R. Z. Khaliullin,  P. P. Korambath,  W. Kurlancheek,  A. M. Lee,  M. S. Lee,  
 S. V. Levchenko,  Ching Yeh Lin,  D. Liotard,  R. C. Lochan,  I. Lotan,  
 P. E. Maslen,  N. Nair,  D. P. O'Neill,  D. Neuhauser,  E. Neuscamman,  
 C. M. Oana,  R. Olson,  B. Peters,  R. Peverati,  P. A. Pieniazek,  
 Y. M. Rhee,  J. Ritchie,  M. A. Rohrdanz,  E. Rosta,  N. J. Russ,  
 H. F. Schaefer III,  N. E. Schultz,  N. Shenvi,  A. C. Simmonett,  A. Sodt,  
 D. Stuck,  K. S. Thanthiriwatte,  V. Vanovschi,  Tao Wang,  A. Warshel,  
 C. F. Williams,  Q. Wu,  X. Xu,  W. Zhang

 Please cite Q-Chem as follows:
 Y. Shao et al., Mol. Phys. 113, 184-215 (2015)
 DOI: 10.1080/00268976.2014.952696

 Q-Chem 5.2.2 for Intel X86 EM64T Linux

 Parts of Q-Chem use Armadillo 9.800.1 (Horizon Scraper).
 http://arma.sourceforge.net/

 Q-Chem begins on Sun Apr 12 08:35:52 2020  

Host: cn0821
0

     Scratch files written to /tmp/ypli/6721342.srvc1/qchem197520//
Warning:  Did not find "$end" marker in "$molecule" section

Checking the input file for inconsistencies... 	...done.

--------------------------------------------------------------
User input:
--------------------------------------------------------------
$rem
   JOBTYPE  sp
   EXCHANGE   omegaB97X-D
   BASIS   6-311+G(2df,2pd)
   max_scf_cycles   250
   geom_opt_max_cycles   1500
   basis2 6-31G*
   scf_algorithm rca_diis
   SYM_IGNORE  TRUE
   print_input   true
   geom_opt_dmax   80
   pop_mulliken false
   XC_GRID 000075000302
$end

$molecule
0 1
C       1.2749081811     -0.0017013996     0.2266814403
C       0.0000001297     -0.0013387709     -0.6121293965
H       1.3079122239     -0.9203902271     0.9071392864
H       1.3081843952     0.9236640656     0.9115865759
H       2.0672693659     -0.0011925767     -0.3156277370
C       -1.2749072978     -0.0017013064     0.2266823585
H       0.0000000194     -0.8566307087     -1.2521183081
H       -0.0000000930     0.8572096610     -1.2542650301
H       -1.3079112034     -0.9203887584     0.9071389266
H       -2.0672723416     -0.0011919818     -0.3156291234
H       -1.3081834401     0.9236626690     0.9115860262
--------------------------------------------------------------
 ----------------------------------------------------------------
             Standard Nuclear Orientation (Angstroms)
    I     Atom           X                Y                Z
 ----------------------------------------------------------------
    1      C       1.2749081811    -0.0017013996     0.2266814403
    2      C       0.0000001297    -0.0013387709    -0.6121293965
    3      H       1.3079122239    -0.9203902271     0.9071392864
    4      H       1.3081843952     0.9236640656     0.9115865759
    5      H       2.0672693659    -0.0011925767    -0.3156277370
    6      C      -1.2749072978    -0.0017013064     0.2266823585
    7      H       0.0000000194    -0.8566307087    -1.2521183081
    8      H      -0.0000000930     0.8572096610    -1.2542650301
    9      H      -1.3079112034    -0.9203887584     0.9071389266
   10      H      -2.0672723416    -0.0011919818    -0.3156291234
   11      H      -1.3081834401     0.9236626690     0.9115860262
 ----------------------------------------------------------------
 Nuclear Repulsion Energy =          83.11009938 hartrees
 There are       13 alpha and       13 beta electrons
 Requested basis set is 6-311+G(2df,2pd)
 There are 72 shells and 214 basis functions

 Total QAlloc Memory Limit   2000 MB
 Mega-Array Size       188 MB
 MEM_STATIC part       192 MB

                       Distance Matrix (Angstroms)
             C (  1)   C (  2)   H (  3)   H (  4)   H (  5)   C (  6)
   C (  2)  1.526104
   H (  3)  1.143723  2.205327
   H (  4)  1.151739  2.211037  1.844060
   H (  5)  0.960175  2.088424  1.707837  1.713950
   C (  6)  2.549815  1.526104  2.824530  2.828031  3.385889
   H (  7)  2.131465  1.068228  2.525291  3.092315  2.425364  2.131465
   H (  8)  2.134554  1.072121  3.089039  2.531141  2.427241  2.134554
   H (  9)  2.824529  2.205326  2.615823  3.200704  3.705661  1.143721
   H ( 10)  3.385893  2.088427  3.705666  3.708790  4.134542  0.960179
   H ( 11)  2.828030  2.211036  3.200704  2.616368  3.708786  1.151737
             H (  7)   H (  8)   H (  9)   H ( 10)
   H (  8)  1.713842
   H (  9)  2.525290  3.089038
   H ( 10)  2.425366  2.427242  1.707839
   H ( 11)  3.092314  2.531140  1.844057  1.713951
 
 A cutoff of  1.0D-09 yielded   2536 shell pairs
 There are     22634 function pairs (     27839 Cartesian)
 Smallest overlap matrix eigenvalue = 8.98E-05

 Scale SEOQF with 1.000000e-01/1.000000e-01/1.000000e-01

 Standard Electronic Orientation quadrupole field applied
 Nucleus-field energy     =     0.0000000006 hartrees
 Requested basis set is 6-31G(d)
 There are 28 shells and 58 basis functions
 A cutoff of  1.0D-09 yielded    402 shell pairs
 There are      1773 function pairs (      1968 Cartesian)
 Smallest overlap matrix eigenvalue = 6.57E-03
 Guess from superposition of atomic densities
 Warning:  Energy on first SCF cycle will be non-variational
 SAD guess density has 26.000000 electrons
 Long-range K will be added via erf
 Coulomb attenuation parameter = 0.2 bohr**(-1)
 A restricted hybrid HF-DFT SCF calculation will be
 performed using Relaxed Constraint Minimization + Pulay DIIS
 Exchange:     0.2220 Hartree-Fock + 1.0000 wB97X-D + LR-HF
 Correlation:  1.0000 wB97X-D
 Using Euler-Maclaurin-Lebedev (75,302) quadrature formula
 Dispersion:   Grimme D
 SCF converges when DIIS error is below 1.0E-04
 using 3 threads for integral computing
 -------------------------------------------------------
 OpenMP Integral computing Module                
 Release: version 1.0, May 2013, Q-Chem Inc. Pittsburgh 
 -------------------------------------------------------
 using 3 threads for integral computing
 -------------------------------------------------------
 OpenMP Integral computing Module                
 Release: version 1.0, May 2013, Q-Chem Inc. Pittsburgh 
 -------------------------------------------------------
 ---------------------------------------
  Cycle       Energy         DIIS Error
 ---------------------------------------
    1    -119.6511959488      1.03E-01
    2    -119.0276560015      9.38E-03
    3    -119.0510574581      2.69E-03
    4    -119.0657950535      1.84E-03
    5    -119.0666360805      3.14E-04 Done RCA. Switching to DIIS
    6    -119.0672325162      2.29E-04
    7    -119.0672551299      5.67E-06 Convergence criterion met
 ---------------------------------------
 SCF time:  CPU 33.13 s  wall 11.52 s
 SCF   energy in the small basis set = -119.06725513
 Total energy in the small basis set = -119.06725513
 ----------------------------------------------------
  Cycle       Energy    
 ----------------------------------------------------
    1     -16.5773993409     -1.66E+01
 Long-range K will be added via erf
 Coulomb attenuation parameter = 0.2 bohr**(-1)
 A restricted hybrid HF-DFT SCF calculation will be
 performed using Relaxed Constraint Minimization + Pulay DIIS
 Exchange:     0.2220 Hartree-Fock + 1.0000 wB97X-D + LR-HF
 Correlation:  1.0000 wB97X-D
 Using Euler-Maclaurin-Lebedev (75,302) quadrature formula
 Dispersion:   Grimme D
 SCF converges when DIIS error is below 1.0E-05
 Basis2 calculation detected. Using small basis as guess for larger.
 SCFMinFind is unable to tell whether the solution found is close.
 Resetting ReadMinima to 0 and attempting to follow guess.
 SCFMinFind following SCF Guess.
 using 3 threads for integral computing
 -------------------------------------------------------
 OpenMP Integral computing Module                
 Release: version 1.0, May 2013, Q-Chem Inc. Pittsburgh 
 -------------------------------------------------------
 using 3 threads for integral computing
 -------------------------------------------------------
 OpenMP Integral computing Module                
 Release: version 1.0, May 2013, Q-Chem Inc. Pittsburgh 
 -------------------------------------------------------
 ---------------------------------------
  Cycle       Energy         DIIS Error
 ---------------------------------------
    1    -119.0883719167      4.21E-03
    2    -119.1104036542      5.94E-04 Done RCA. Switching to DIIS
    3    -119.1112530802      4.10E-04
    4    -119.1121692509      4.41E-05
    5    -119.1121832227      9.35E-06 Convergence criterion met
 ---------------------------------------
 SCF time:  CPU 83.42 s  wall 28.28 s
 SCF   energy in the final basis set = -119.11218322
 Total energy in the final basis set = -119.11218322
 
 --------------------------------------------------------------
 
                    Orbital Energies (a.u.)
 --------------------------------------------------------------
 
 Alpha MOs
 -- Occupied --
-10.2702 -10.2614 -10.2614  -0.8831  -0.7850  -0.6819  -0.5435  -0.5419
 -0.4813  -0.4497  -0.4320  -0.4176  -0.4041
 -- Virtual --
  0.0700   0.0834   0.0917   0.0996   0.1234   0.1304   0.1350   0.1413
  0.1432   0.1717   0.1742   0.1900   0.2212   0.2295   0.2582   0.2681
  0.2756   0.3000   0.3119   0.3125   0.3440   0.3466   0.4506   0.4646
  0.4770   0.5086   0.5170   0.5199   0.5424   0.5670   0.5704   0.5776
  0.6302   0.6365   0.6375   0.6547   0.6639   0.6725   0.7104   0.7280
  0.7441   0.7708   0.8211   0.8599   0.8606   0.8808   0.8883   0.9517
  1.0127   1.0500   1.0696   1.1508   1.1658   1.1871   1.1928   1.2006
  1.2280   1.2287   1.2680   1.2781   1.2850   1.2901   1.3274   1.3834
  1.3848   1.4170   1.4271   1.4385   1.4546   1.4648   1.4701   1.4988
  1.5277   1.5739   1.5892   1.6250   1.6450   1.6843   1.6857   1.7403
  1.7411   2.3909   2.3934   2.4228   2.4752   2.5481   2.5693   2.6474
  2.6700   2.7197   2.8302   2.8340   2.8654   2.8893   2.9230   2.9407
  2.9466   2.9520   2.9724   3.0369   3.0404   3.0493   3.0599   3.1193
  3.1572   3.1641   3.1727   3.2173   3.2226   3.2360   3.2851   3.3086
  3.3217   3.3371   3.3407   3.3476   3.3495   3.3501   3.3825   3.4778
  3.4843   3.4870   3.5070   3.5238   3.5507   3.5669   3.5901   3.6278
  3.6285   3.6765   3.6983   3.7527   3.7666   3.7907   3.8887   3.9150
  3.9306   3.9338   3.9428   3.9580   3.9789   3.9809   4.0470   4.0537
  4.0811   4.1069   4.1097   4.1546   4.1634   4.1966   4.2094   4.2245
  4.2305   4.2475   4.2980   4.3523   4.3677   4.3720   4.4525   4.4539
  4.5143   4.5772   4.5778   4.5903   4.6552   4.7691   4.8591   4.8645
  4.8707   4.9455   4.9706   5.0010   5.0027   5.1186   5.1315   5.1367
  5.1892   5.2404   5.2599   5.2720   5.2896   5.4014   5.4705   5.5047
  5.5051   5.5310   5.6069   5.6520   5.6820   5.7178   5.7404   5.7749
  5.9894   6.2490   6.2561   6.5111   6.5776   6.5919  25.2613  25.3938
 25.4228
 --------------------------------------------------------------
 
 -----------------------------------------------------------------
                    Cartesian Multipole Moments
 -----------------------------------------------------------------
    Charge (ESU x 10^10)
                -0.0000
    Dipole Moment (Debye)
         X       0.0000      Y      -0.0131      Z      -0.2955
       Tot       0.2958
    Quadrupole Moments (Debye-Ang)
        XX     -21.8381     XY      -0.0000     YY     -21.3106
        XZ      -0.0000     YZ      -0.0027     ZZ     -21.8798
    Octopole Moments (Debye-Ang^2)
       XXX       0.0000    XXY      -0.0226    XYY      -0.0000
       YYY       0.0076    XXZ      -1.6313    XYZ       0.0000
       YYZ       0.5909    XZZ      -0.0000    YZZ       0.0017
       ZZZ      -0.3448
    Hexadecapole Moments (Debye-Ang^3)
      XXXX    -195.0023   XXXY      -0.0000   XXYY     -41.3252
      XYYY       0.0000   YYYY     -46.1365   XXXZ      -0.0000
      XXYZ      -0.0308   XYYZ      -0.0000   YYYZ      -0.0509
      XXZZ     -44.7060   XYZZ       0.0000   YYZZ     -17.3787
      XZZZ      -0.0000   YZZZ      -0.0561   ZZZZ     -72.9272
 -----------------------------------------------------------------
Archival summary:
1\1\cn0821\SP\ProcedureUnspecified\BasisUnspecified\38\r0852400\SunApr1208:36:362020SunApr1208:36:362020\0\\#,ProcedureUnspecified,BasisUnspecified,\\0,1\C\H,1,1.06823\H,1,1.07212,2,106.4\C,1,1.5261,2,109.215,3,117.787,0\H,4,0.960179,1,112.269,2,-58.0312,0\H,4,1.14372,1,110.567,2,62.9323,0\H,4,1.15174,1,110.536,2,-178.893,0\C,1,1.5261,2,109.215,3,-117.787,0\H,8,0.960175,1,112.269,2,58.0312,0\H,8,1.14372,1,110.567,2,-62.9323,0\H,8,1.15174,1,110.536,2,178.893,0\\\@

 Total job time:  44.13s(wall), 121.77s(cpu) 
 Sun Apr 12 08:36:36 2020

        *************************************************************
        *                                                           *
        *  Thank you very much for using Q-Chem.  Have a nice day.  *
        *                                                           *
        *************************************************************


