                  Welcome to Q-Chem
     A Quantum Leap Into The Future Of Chemistry


 Q-Chem 5.2 (devel), Q-Chem, Inc., Pleasanton, CA (2019)

 Yihan Shao,  Zhengting Gan,  E. Epifanovsky,  A. T. B. Gilbert,  M. Wormit,  
 J. Kussmann,  A. W. Lange,  A. Behn,  Jia Deng,  Xintian Feng,  D. Ghosh,  
 M. Goldey,  P. R. Horn,  L. D. Jacobson,  I. Kaliman,  T. Kus,  A. Landau,  
 Jie Liu,  E. I. Proynov,  R. M. Richard,  R. P. Steele,  E. J. Sundstrom,  
 H. L. Woodcock III,  P. M. Zimmerman,  D. Zuev,  B. Alam,  B. Albrecht,  
 E. Alguire,  S. A. Baeppler,  D. Barton,  Z. Benda,  Y. A. Bernard,  
 E. J. Berquist,  K. B. Bravaya,  H. Burton,  K. Carter-Fenk,  D. Casanova,  
 Chun-Min Chang,  Yunqing Chen,  A. Chien,  K. D. Closser,  M. P. Coons,  
 S. Coriani,  S. Dasgupta,  A. L. Dempwolff,  M. Diedenhofen,  Hainam Do,  
 R. G. Edgar,  Po-Tung Fang,  S. Faraji,  S. Fatehi,  Qingguo Feng,  
 J. Fosso-Tande,  J. Gayvert,  Qinghui Ge,  A. Ghysels,  G. Gidofalvi,  
 J. Gomes,  J. Gonthier,  A. Gunina,  D. Hait,  M. W. D. Hanson-Heine,  
 P. H. P. Harbach,  A. W. Hauser,  M. F. Herbst,  J. E. Herr,  
 E. G. Hohenstein,  Z. C. Holden,  Kerwin Hui,  B. C. Huynh,  T.-C. Jagau,  
 Hyunjun Ji,  B. Kaduk,  K. Khistyaev,  Jaehoon Kim,  P. Klunzinger,  K. Koh,  
 D. Kosenkov,  L. Koulias,  T. Kowalczyk,  C. M. Krauter,  A. Kunitsa,  
 Ka Un Lao,  A. Laurent,  K. V. Lawler,  Joonho Lee,  D. Lefrancois,  
 S. Lehtola,  D. S. Levine,  Yi-Pei Li,  You-Sheng Lin,  Fenglai Liu,  
 Kuan-Yu Liu,  E. Livshits,  M. Loipersberger,  A. Luenser,  P. Manohar,  
 E. Mansoor,  S. F. Manzer,  Shan-Ping Mao,  Yuezhi Mao,  N. Mardirossian,  
 A. V. Marenich,  T. Markovich,  L. A. Martinez-Martinez,  S. A. Maurer,  
 N. J. Mayhall,  S. C. McKenzie,  J.-M. Mewes,  P. Morgante,  A. F. Morrison,  
 J. W. Mullinax,  K. Nanda,  T. S. Nguyen-Beck,  R. Olivares-Amaya,  
 J. A. Parkhill,  S. K. Paul,  Zheng Pei,  T. M. Perrine,  F. Plasser,  
 P. Pokhilko,  S. Prager,  A. Prociuk,  E. Ramos,  B. Rana,  D. R. Rehn,  
 F. Rob,  M. Scheurer,  M. Schneider,  N. Sergueev,  S. M. Sharada,  
 S. Sharma,  D. W. Small,  T. Stauch,  C. J. Stein,  T. Stein,  Yu-Chuan Su,  
 S. P. Veccham,  A. J. W. Thom,  A. Tkatchenko,  T. Tsuchimochi,  
 N. M. Tubman,  L. Vogt,  M. L. Vidal,  O. Vydrov,  M. A. Watson,  J. Wenzel,  
 M. de Wergifosse,  T. A. Wesolowski,  A. White,  J. Witte,  A. Yamada,  
 Jun Yang,  K. Yao,  S. Yeganeh,  S. R. Yost,  Zhi-Qiang You,  A. Zech,  
 Igor Ying Zhang,  Xing Zhang,  Yan Zhao,  Ying Zhu,  B. R. Brooks,  
 G. K. L. Chan,  C. J. Cramer,  M. S. Gordon,  W. J. Hehre,  A. Klamt,  
 M. W. Schmidt,  C. D. Sherrill,  D. G. Truhlar,  A. Aspuru-Guzik,  R. Baer,  
 A. T. Bell,  N. A. Besley,  Jeng-Da Chai,  A. E. DePrince, III,  
 R. A. DiStasio Jr.,  A. Dreuw,  B. D. Dunietz,  T. R. Furlani,  
 Chao-Ping Hsu,  Yousung Jung,  Jing Kong,  D. S. Lambrecht,  WanZhen Liang,  
 C. Ochsenfeld,  V. A. Rassolov,  L. V. Slipchenko,  J. E. Subotnik,  
 T. Van Voorhis,  J. M. Herbert,  A. I. Krylov,  P. M. W. Gill,  M. Head-Gordon

 Contributors to earlier versions of Q-Chem not listed above: 
 R. D. Adamson,  B. Austin,  J. Baker,  G. J. O. Beran,  K. Brandhorst,  
 S. T. Brown,  E. F. C. Byrd,  A. K. Chakraborty,  C.-L. Cheng,  
 Siu Hung Chien,  D. M. Chipman,  D. L. Crittenden,  H. Dachsel,  
 R. J. Doerksen,  A. D. Dutoi,  L. Fusti-Molnar,  W. A. Goddard III,  
 A. Golubeva-Zadorozhnaya,  S. R. Gwaltney,  G. Hawkins,  A. Heyden,  
 S. Hirata,  G. Kedziora,  F. J. Keil,  C. Kelley,  Jihan Kim,  R. A. King,  
 R. Z. Khaliullin,  P. P. Korambath,  W. Kurlancheek,  A. M. Lee,  M. S. Lee,  
 S. V. Levchenko,  Ching Yeh Lin,  D. Liotard,  R. C. Lochan,  I. Lotan,  
 P. E. Maslen,  N. Nair,  D. P. O'Neill,  D. Neuhauser,  E. Neuscamman,  
 C. M. Oana,  R. Olson,  B. Peters,  R. Peverati,  P. A. Pieniazek,  
 Y. M. Rhee,  J. Ritchie,  M. A. Rohrdanz,  E. Rosta,  N. J. Russ,  
 H. F. Schaefer III,  N. E. Schultz,  N. Shenvi,  A. C. Simmonett,  A. Sodt,  
 D. Stuck,  K. S. Thanthiriwatte,  V. Vanovschi,  Tao Wang,  A. Warshel,  
 C. F. Williams,  Q. Wu,  X. Xu,  W. Zhang

 Please cite Q-Chem as follows:
 Y. Shao et al., Mol. Phys. 113, 184-215 (2015)
 DOI: 10.1080/00268976.2014.952696

 Q-Chem 5.2.2 for Intel X86 EM64T Linux

 Parts of Q-Chem use Armadillo 9.800.1 (Horizon Scraper).
 http://arma.sourceforge.net/

 Q-Chem begins on Sun Apr 12 07:31:47 2020  

Host: cn0821
0

     Scratch files written to /tmp/ypli/6721342.srvc1/qchem188048//
Warning:  Did not find "$end" marker in "$molecule" section

Checking the input file for inconsistencies... 	...done.

--------------------------------------------------------------
User input:
--------------------------------------------------------------
$rem
   JOBTYPE  sp
   EXCHANGE   omegaB97X-D
   BASIS   6-311+G(2df,2pd)
   max_scf_cycles   250
   geom_opt_max_cycles   1500
   basis2 6-31G*
   scf_algorithm rca_diis
   SYM_IGNORE  TRUE
   print_input   true
   geom_opt_dmax   80
   pop_mulliken false
   XC_GRID 000075000302
$end

$molecule
0 1
C       1.2697836089     0.0284122172     0.2330610850
C       0.0000000101     0.0268210962     -0.6273138553
H       1.3647221367     -0.8299231256     0.9065464354
H       1.2186747092     0.8536094941     0.9446462071
H       2.1402750876     -0.0873492999     -0.4110687922
C       -1.2697837288     0.0284125950     0.2330610293
H       -0.0000003368     -0.9124954983     -1.1795856095
H       0.0000000118     0.9561768419     -1.1984249700
H       -1.3647233153     -0.8299230451     0.9065459359
H       -2.1402749997     -0.0873502186     -0.4110687658
H       -1.2186732443     0.8536096091     0.9446463191
--------------------------------------------------------------
 ----------------------------------------------------------------
             Standard Nuclear Orientation (Angstroms)
    I     Atom           X                Y                Z
 ----------------------------------------------------------------
    1      C       1.2697836089     0.0284122172     0.2330610850
    2      C       0.0000000101     0.0268210962    -0.6273138553
    3      H       1.3647221367    -0.8299231256     0.9065464354
    4      H       1.2186747092     0.8536094941     0.9446462071
    5      H       2.1402750876    -0.0873492999    -0.4110687922
    6      C      -1.2697837288     0.0284125950     0.2330610293
    7      H      -0.0000003368    -0.9124954983    -1.1795856095
    8      H       0.0000000118     0.9561768419    -1.1984249700
    9      H      -1.3647233153    -0.8299230451     0.9065459359
   10      H      -2.1402749997    -0.0873502186    -0.4110687658
   11      H      -1.2186732443     0.8536096091     0.9446463191
 ----------------------------------------------------------------
 Nuclear Repulsion Energy =          82.67508938 hartrees
 There are       13 alpha and       13 beta electrons
 Requested basis set is 6-311+G(2df,2pd)
 There are 72 shells and 214 basis functions

 Total QAlloc Memory Limit   2000 MB
 Mega-Array Size       188 MB
 MEM_STATIC part       192 MB

                       Distance Matrix (Angstroms)
             C (  1)   C (  2)   H (  3)   H (  4)   H (  5)   C (  6)
   C (  2)  1.533818
   H (  3)  1.095142  2.224681
   H (  4)  1.090833  2.154021  1.690285
   H (  5)  1.089064  2.154199  1.699708  1.890162
   C (  6)  2.539567  1.533818  2.851481  2.716566  3.472291
   H (  7)  2.119724  1.089642  2.494240  3.019380  2.419145  2.119724
   H (  8)  2.126558  1.090812  3.079533  2.467477  2.507918  2.126558
   H (  9)  2.851482  2.224681  2.729445  3.083777  3.817399  1.095142
   H ( 10)  3.472291  2.154199  3.817398  3.742447  4.280550  1.089063
   H ( 11)  2.716564  2.154020  3.083775  2.437348  3.742446  1.090833
             H (  7)   H (  8)   H (  9)   H ( 10)
   H (  8)  1.868767
   H (  9)  2.494240  3.079533
   H ( 10)  2.419144  2.507919  1.699707
   H ( 11)  3.019379  2.467476  1.690285  1.890164
 
 A cutoff of  1.0D-09 yielded   2536 shell pairs
 There are     22582 function pairs (     27763 Cartesian)
 Smallest overlap matrix eigenvalue = 8.48E-05

 Scale SEOQF with 1.000000e-01/1.000000e-01/1.000000e-01

 Standard Electronic Orientation quadrupole field applied
 Nucleus-field energy     =     0.0000000006 hartrees
 Requested basis set is 6-31G(d)
 There are 28 shells and 58 basis functions
 A cutoff of  1.0D-09 yielded    402 shell pairs
 There are      1773 function pairs (      1968 Cartesian)
 Smallest overlap matrix eigenvalue = 6.53E-03
 Guess from superposition of atomic densities
 Warning:  Energy on first SCF cycle will be non-variational
 SAD guess density has 26.000000 electrons
 Long-range K will be added via erf
 Coulomb attenuation parameter = 0.2 bohr**(-1)
 A restricted hybrid HF-DFT SCF calculation will be
 performed using Relaxed Constraint Minimization + Pulay DIIS
 Exchange:     0.2220 Hartree-Fock + 1.0000 wB97X-D + LR-HF
 Correlation:  1.0000 wB97X-D
 Using Euler-Maclaurin-Lebedev (75,302) quadrature formula
 Dispersion:   Grimme D
 SCF converges when DIIS error is below 1.0E-04
 using 3 threads for integral computing
 -------------------------------------------------------
 OpenMP Integral computing Module                
 Release: version 1.0, May 2013, Q-Chem Inc. Pittsburgh 
 -------------------------------------------------------
 using 3 threads for integral computing
 -------------------------------------------------------
 OpenMP Integral computing Module                
 Release: version 1.0, May 2013, Q-Chem Inc. Pittsburgh 
 -------------------------------------------------------
 ---------------------------------------
  Cycle       Energy         DIIS Error
 ---------------------------------------
    1    -119.6067456430      9.99E-02
    2    -119.0517441653      9.10E-03
    3    -119.0734841332      2.53E-03
    4    -119.0875529762      1.72E-03
    5    -119.0882901455      2.90E-04 Done RCA. Switching to DIIS
    6    -119.0888175504      2.12E-04
    7    -119.0888370512      5.32E-06 Convergence criterion met
 ---------------------------------------
 SCF time:  CPU 33.20 s  wall 11.46 s
 SCF   energy in the small basis set = -119.08883705
 Total energy in the small basis set = -119.08883705
 ----------------------------------------------------
  Cycle       Energy    
 ----------------------------------------------------
    1     -16.5333464823     -1.65E+01
 Long-range K will be added via erf
 Coulomb attenuation parameter = 0.2 bohr**(-1)
 A restricted hybrid HF-DFT SCF calculation will be
 performed using Relaxed Constraint Minimization + Pulay DIIS
 Exchange:     0.2220 Hartree-Fock + 1.0000 wB97X-D + LR-HF
 Correlation:  1.0000 wB97X-D
 Using Euler-Maclaurin-Lebedev (75,302) quadrature formula
 Dispersion:   Grimme D
 SCF converges when DIIS error is below 1.0E-05
 Basis2 calculation detected. Using small basis as guess for larger.
 SCFMinFind is unable to tell whether the solution found is close.
 Resetting ReadMinima to 0 and attempting to follow guess.
 SCFMinFind following SCF Guess.
 using 3 threads for integral computing
 -------------------------------------------------------
 OpenMP Integral computing Module                
 Release: version 1.0, May 2013, Q-Chem Inc. Pittsburgh 
 -------------------------------------------------------
 using 3 threads for integral computing
 -------------------------------------------------------
 OpenMP Integral computing Module                
 Release: version 1.0, May 2013, Q-Chem Inc. Pittsburgh 
 -------------------------------------------------------
 ---------------------------------------
  Cycle       Energy         DIIS Error
 ---------------------------------------
    1    -119.1084075973      4.21E-03
    2    -119.1304359101      6.15E-04 Done RCA. Switching to DIIS
    3    -119.1313252618      4.31E-04
    4    -119.1323464325      4.36E-05
    5    -119.1323605358      9.46E-06 Convergence criterion met
 ---------------------------------------
 SCF time:  CPU 83.55 s  wall 28.27 s
 SCF   energy in the final basis set = -119.13236054
 Total energy in the final basis set = -119.13236054
 
 --------------------------------------------------------------
 
                    Orbital Energies (a.u.)
 --------------------------------------------------------------
 
 Alpha MOs
 -- Occupied --
-10.2761 -10.2648 -10.2648  -0.8812  -0.7766  -0.6767  -0.5558  -0.5187
 -0.4960  -0.4576  -0.4150  -0.4090  -0.4050
 -- Virtual --
  0.0691   0.0862   0.0905   0.0992   0.1226   0.1269   0.1343   0.1407
  0.1413   0.1705   0.1718   0.1935   0.2194   0.2354   0.2489   0.2697
  0.2850   0.2865   0.2979   0.3086   0.3388   0.3525   0.4551   0.4684
  0.4704   0.4964   0.5210   0.5217   0.5399   0.5656   0.5816   0.5875
  0.6200   0.6265   0.6377   0.6449   0.6532   0.6650   0.7145   0.7202
  0.7234   0.7682   0.8259   0.8593   0.8762   0.8811   0.8850   0.9560
  0.9854   1.0222   1.0530   1.1303   1.1381   1.1827   1.1871   1.2209
  1.2214   1.2450   1.2693   1.2745   1.2759   1.3128   1.3420   1.3758
  1.3797   1.3907   1.4094   1.4481   1.4588   1.4624   1.4667   1.4856
  1.5367   1.5740   1.6057   1.6190   1.6238   1.6345   1.6684   1.7034
  1.7470   2.4004   2.4725   2.4818   2.4962   2.5570   2.5778   2.5988
  2.6309   2.7311   2.8138   2.8254   2.8456   2.8809   2.9209   2.9252
  2.9369   2.9525   3.0004   3.0009   3.0310   3.0599   3.0648   3.0947
  3.1218   3.1463   3.1642   3.1812   3.2276   3.2612   3.2803   3.2847
  3.3117   3.3390   3.3502   3.3622   3.3972   3.3985   3.4374   3.4518
  3.4870   3.4960   3.5069   3.5436   3.5653   3.5863   3.5905   3.6190
  3.6215   3.6471   3.6640   3.6647   3.7584   3.7885   3.8298   3.8842
  3.9076   3.9112   3.9343   3.9414   3.9575   3.9585   3.9825   4.0107
  4.0561   4.0979   4.1015   4.1343   4.1380   4.1406   4.1665   4.1938
  4.2485   4.2890   4.2978   4.3565   4.3669   4.4042   4.4221   4.4243
  4.4632   4.5826   4.6032   4.6462   4.7040   4.7578   4.8321   4.8795
  4.8962   4.9003   4.9288   4.9690   4.9743   5.0144   5.0737   5.0920
  5.1438   5.2295   5.2387   5.2828   5.3059   5.3546   5.3625   5.4098
  5.4470   5.4805   5.5349   5.5464   5.5512   5.6171   5.7478   5.7510
  5.9931   6.2983   6.3751   6.4031   6.4329   6.4615  25.1926  25.4340
 25.4490
 --------------------------------------------------------------
 
 -----------------------------------------------------------------
                    Cartesian Multipole Moments
 -----------------------------------------------------------------
    Charge (ESU x 10^10)
                -0.0000
    Dipole Moment (Debye)
         X       0.0000      Y      -0.1407      Z      -0.0012
       Tot       0.1407
    Quadrupole Moments (Debye-Ang)
        XX     -22.5173     XY       0.0000     YY     -21.4659
        XZ       0.0000     YZ       0.2228     ZZ     -21.7428
    Octopole Moments (Debye-Ang^2)
       XXX       0.0000    XXY      -2.4481    XYY       0.0000
       YYY      -1.1608    XXZ      -1.3633    XYZ      -0.0000
       YYZ       0.3200    XZZ       0.0000    YZZ      -0.1178
       ZZZ       2.0274
    Hexadecapole Moments (Debye-Ang^3)
      XXXX    -204.2608   XXXY       0.0000   XXYY     -43.0106
      XYYY       0.0000   YYYY     -44.3745   XXXZ      -0.0000
      XXYZ       0.0524   XYYZ       0.0000   YYYZ      -0.0588
      XXZZ     -44.5356   XYZZ       0.0000   YYZZ     -17.1260
      XZZZ       0.0000   YZZZ       0.1415   ZZZZ     -73.2553
 -----------------------------------------------------------------
Archival summary:
1\1\cn0821\SP\ProcedureUnspecified\BasisUnspecified\38\r0852400\SunApr1207:32:312020SunApr1207:32:312020\0\\#,ProcedureUnspecified,BasisUnspecified,\\0,1\C\H,1,1.08964\H,1,1.09081,2,117.975\C,1,1.53382,2,106.571,3,-120.262,0\H,4,1.08906,1,109.259,2,57.5524,0\H,4,1.09083,1,109.142,2,-169.13,0\H,4,1.09514,1,114.577,2,-56.3834,0\C,1,1.53382,2,106.571,3,120.262,0\H,8,1.08906,1,109.259,2,-57.5523,0\H,8,1.09083,1,109.142,2,169.13,0\H,8,1.09514,1,114.577,2,56.3834,0\\\@

 Total job time:  44.06s(wall), 121.99s(cpu) 
 Sun Apr 12 07:32:31 2020

        *************************************************************
        *                                                           *
        *  Thank you very much for using Q-Chem.  Have a nice day.  *
        *                                                           *
        *************************************************************


