                  Welcome to Q-Chem
     A Quantum Leap Into The Future Of Chemistry


 Q-Chem 5.2 (devel), Q-Chem, Inc., Pleasanton, CA (2019)

 Yihan Shao,  Zhengting Gan,  E. Epifanovsky,  A. T. B. Gilbert,  M. Wormit,  
 J. Kussmann,  A. W. Lange,  A. Behn,  Jia Deng,  Xintian Feng,  D. Ghosh,  
 M. Goldey,  P. R. Horn,  L. D. Jacobson,  I. Kaliman,  T. Kus,  A. Landau,  
 Jie Liu,  E. I. Proynov,  R. M. Richard,  R. P. Steele,  E. J. Sundstrom,  
 H. L. Woodcock III,  P. M. Zimmerman,  D. Zuev,  B. Alam,  B. Albrecht,  
 E. Alguire,  S. A. Baeppler,  D. Barton,  Z. Benda,  Y. A. Bernard,  
 E. J. Berquist,  K. B. Bravaya,  H. Burton,  K. Carter-Fenk,  D. Casanova,  
 Chun-Min Chang,  Yunqing Chen,  A. Chien,  K. D. Closser,  M. P. Coons,  
 S. Coriani,  S. Dasgupta,  A. L. Dempwolff,  M. Diedenhofen,  Hainam Do,  
 R. G. Edgar,  Po-Tung Fang,  S. Faraji,  S. Fatehi,  Qingguo Feng,  
 J. Fosso-Tande,  J. Gayvert,  Qinghui Ge,  A. Ghysels,  G. Gidofalvi,  
 J. Gomes,  J. Gonthier,  A. Gunina,  D. Hait,  M. W. D. Hanson-Heine,  
 P. H. P. Harbach,  A. W. Hauser,  M. F. Herbst,  J. E. Herr,  
 E. G. Hohenstein,  Z. C. Holden,  Kerwin Hui,  B. C. Huynh,  T.-C. Jagau,  
 Hyunjun Ji,  B. Kaduk,  K. Khistyaev,  Jaehoon Kim,  P. Klunzinger,  K. Koh,  
 D. Kosenkov,  L. Koulias,  T. Kowalczyk,  C. M. Krauter,  A. Kunitsa,  
 Ka Un Lao,  A. Laurent,  K. V. Lawler,  Joonho Lee,  D. Lefrancois,  
 S. Lehtola,  D. S. Levine,  Yi-Pei Li,  You-Sheng Lin,  Fenglai Liu,  
 Kuan-Yu Liu,  E. Livshits,  M. Loipersberger,  A. Luenser,  P. Manohar,  
 E. Mansoor,  S. F. Manzer,  Shan-Ping Mao,  Yuezhi Mao,  N. Mardirossian,  
 A. V. Marenich,  T. Markovich,  L. A. Martinez-Martinez,  S. A. Maurer,  
 N. J. Mayhall,  S. C. McKenzie,  J.-M. Mewes,  P. Morgante,  A. F. Morrison,  
 J. W. Mullinax,  K. Nanda,  T. S. Nguyen-Beck,  R. Olivares-Amaya,  
 J. A. Parkhill,  S. K. Paul,  Zheng Pei,  T. M. Perrine,  F. Plasser,  
 P. Pokhilko,  S. Prager,  A. Prociuk,  E. Ramos,  B. Rana,  D. R. Rehn,  
 F. Rob,  M. Scheurer,  M. Schneider,  N. Sergueev,  S. M. Sharada,  
 S. Sharma,  D. W. Small,  T. Stauch,  C. J. Stein,  T. Stein,  Yu-Chuan Su,  
 S. P. Veccham,  A. J. W. Thom,  A. Tkatchenko,  T. Tsuchimochi,  
 N. M. Tubman,  L. Vogt,  M. L. Vidal,  O. Vydrov,  M. A. Watson,  J. Wenzel,  
 M. de Wergifosse,  T. A. Wesolowski,  A. White,  J. Witte,  A. Yamada,  
 Jun Yang,  K. Yao,  S. Yeganeh,  S. R. Yost,  Zhi-Qiang You,  A. Zech,  
 Igor Ying Zhang,  Xing Zhang,  Yan Zhao,  Ying Zhu,  B. R. Brooks,  
 G. K. L. Chan,  C. J. Cramer,  M. S. Gordon,  W. J. Hehre,  A. Klamt,  
 M. W. Schmidt,  C. D. Sherrill,  D. G. Truhlar,  A. Aspuru-Guzik,  R. Baer,  
 A. T. Bell,  N. A. Besley,  Jeng-Da Chai,  A. E. DePrince, III,  
 R. A. DiStasio Jr.,  A. Dreuw,  B. D. Dunietz,  T. R. Furlani,  
 Chao-Ping Hsu,  Yousung Jung,  Jing Kong,  D. S. Lambrecht,  WanZhen Liang,  
 C. Ochsenfeld,  V. A. Rassolov,  L. V. Slipchenko,  J. E. Subotnik,  
 T. Van Voorhis,  J. M. Herbert,  A. I. Krylov,  P. M. W. Gill,  M. Head-Gordon

 Contributors to earlier versions of Q-Chem not listed above: 
 R. D. Adamson,  B. Austin,  J. Baker,  G. J. O. Beran,  K. Brandhorst,  
 S. T. Brown,  E. F. C. Byrd,  A. K. Chakraborty,  C.-L. Cheng,  
 Siu Hung Chien,  D. M. Chipman,  D. L. Crittenden,  H. Dachsel,  
 R. J. Doerksen,  A. D. Dutoi,  L. Fusti-Molnar,  W. A. Goddard III,  
 A. Golubeva-Zadorozhnaya,  S. R. Gwaltney,  G. Hawkins,  A. Heyden,  
 S. Hirata,  G. Kedziora,  F. J. Keil,  C. Kelley,  Jihan Kim,  R. A. King,  
 R. Z. Khaliullin,  P. P. Korambath,  W. Kurlancheek,  A. M. Lee,  M. S. Lee,  
 S. V. Levchenko,  Ching Yeh Lin,  D. Liotard,  R. C. Lochan,  I. Lotan,  
 P. E. Maslen,  N. Nair,  D. P. O'Neill,  D. Neuhauser,  E. Neuscamman,  
 C. M. Oana,  R. Olson,  B. Peters,  R. Peverati,  P. A. Pieniazek,  
 Y. M. Rhee,  J. Ritchie,  M. A. Rohrdanz,  E. Rosta,  N. J. Russ,  
 H. F. Schaefer III,  N. E. Schultz,  N. Shenvi,  A. C. Simmonett,  A. Sodt,  
 D. Stuck,  K. S. Thanthiriwatte,  V. Vanovschi,  Tao Wang,  A. Warshel,  
 C. F. Williams,  Q. Wu,  X. Xu,  W. Zhang

 Please cite Q-Chem as follows:
 Y. Shao et al., Mol. Phys. 113, 184-215 (2015)
 DOI: 10.1080/00268976.2014.952696

 Q-Chem 5.2.2 for Intel X86 EM64T Linux

 Parts of Q-Chem use Armadillo 9.800.1 (Horizon Scraper).
 http://arma.sourceforge.net/

 Q-Chem begins on Sun Apr 12 06:58:48 2020  

Host: cn0821
0

     Scratch files written to /tmp/ypli/6721342.srvc1/qchem183160//
Warning:  Did not find "$end" marker in "$molecule" section

Checking the input file for inconsistencies... 	...done.

--------------------------------------------------------------
User input:
--------------------------------------------------------------
$rem
   JOBTYPE  sp
   EXCHANGE   omegaB97X-D
   BASIS   6-311+G(2df,2pd)
   max_scf_cycles   250
   geom_opt_max_cycles   1500
   basis2 6-31G*
   scf_algorithm rca_diis
   SYM_IGNORE  TRUE
   print_input   true
   geom_opt_dmax   80
   pop_mulliken false
   XC_GRID 000075000302
$end

$molecule
0 1
C       1.3441495870     -0.0036227274     0.3495338611
C       0.1973431691     0.0004498578     -0.5652683066
H       1.3071365682     -0.9335573312     0.9096198399
H       1.3230846021     0.9295352716     0.9057525080
H       2.1322227947     0.0095571635     -0.3995444313
C       -1.2062552376     0.0043958386     0.1626082522
H       -0.1251270205     -0.8222317128     -1.2078926607
H       -0.1425712164     0.8173587057     -1.2062645482
H       -1.3408435607     -0.8205227858     0.8739207776
H       -2.1651354506     -0.0060603388     -0.3630827842
H       -1.3240042959     0.8246987248     0.8816625111
--------------------------------------------------------------
 ----------------------------------------------------------------
             Standard Nuclear Orientation (Angstroms)
    I     Atom           X                Y                Z
 ----------------------------------------------------------------
    1      C       1.3441495870    -0.0036227274     0.3495338611
    2      C       0.1973431691     0.0004498578    -0.5652683066
    3      H       1.3071365682    -0.9335573312     0.9096198399
    4      H       1.3230846021     0.9295352716     0.9057525080
    5      H       2.1322227947     0.0095571635    -0.3995444313
    6      C      -1.2062552376     0.0043958386     0.1626082522
    7      H      -0.1251270205    -0.8222317128    -1.2078926607
    8      H      -0.1425712164     0.8173587057    -1.2062645482
    9      H      -1.3408435607    -0.8205227858     0.8739207776
   10      H      -2.1651354506    -0.0060603388    -0.3630827842
   11      H      -1.3240042959     0.8246987248     0.8816625111
 ----------------------------------------------------------------
 Nuclear Repulsion Energy =          82.96916271 hartrees
 There are       13 alpha and       13 beta electrons
 Requested basis set is 6-311+G(2df,2pd)
 There are 72 shells and 214 basis functions

 Total QAlloc Memory Limit   2000 MB
 Mega-Array Size       188 MB
 MEM_STATIC part       192 MB

                       Distance Matrix (Angstroms)
             C (  1)   C (  2)   H (  3)   H (  4)   H (  5)   C (  6)
   C (  2)  1.466985
   H (  3)  1.086207  2.068648
   H (  4)  1.086557  2.072292  1.863165
   H (  5)  1.087360  1.941985  1.812221  1.790214
   C (  6)  2.557258  1.581110  2.784766  2.793869  3.385480
   H (  7)  2.292263  1.092592  2.558834  3.103788  2.537898  1.931431
   H (  8)  2.303228  1.092592  3.105532  2.573198  2.545197  1.914718
   H (  9)  2.855082  2.260814  2.650632  3.187512  3.791166  1.097529
   H ( 10)  3.580909  2.371123  3.812702  3.827919  4.297541  1.093577
   H ( 11)  2.843998  2.255547  3.164672  2.649274  3.775110  1.097179
             H (  7)   H (  8)   H (  9)   H ( 10)
   H (  8)  1.639684
   H (  9)  2.410792  2.906146
   H ( 10)  2.354034  2.340885  1.694988
   H ( 11)  2.918206  2.399016  1.645326  1.716698
 
 A cutoff of  1.0D-09 yielded   2537 shell pairs
 There are     22617 function pairs (     27810 Cartesian)
 Smallest overlap matrix eigenvalue = 1.01E-04

 Scale SEOQF with 1.000000e-01/1.000000e-01/1.000000e-01

 Standard Electronic Orientation quadrupole field applied
 Nucleus-field energy     =     0.0000000006 hartrees
 Requested basis set is 6-31G(d)
 There are 28 shells and 58 basis functions
 A cutoff of  1.0D-09 yielded    402 shell pairs
 There are      1773 function pairs (      1968 Cartesian)
 Smallest overlap matrix eigenvalue = 6.82E-03
 Guess from superposition of atomic densities
 Warning:  Energy on first SCF cycle will be non-variational
 SAD guess density has 26.000000 electrons
 Long-range K will be added via erf
 Coulomb attenuation parameter = 0.2 bohr**(-1)
 A restricted hybrid HF-DFT SCF calculation will be
 performed using Relaxed Constraint Minimization + Pulay DIIS
 Exchange:     0.2220 Hartree-Fock + 1.0000 wB97X-D + LR-HF
 Correlation:  1.0000 wB97X-D
 Using Euler-Maclaurin-Lebedev (75,302) quadrature formula
 Dispersion:   Grimme D
 SCF converges when DIIS error is below 1.0E-04
 using 3 threads for integral computing
 -------------------------------------------------------
 OpenMP Integral computing Module                
 Release: version 1.0, May 2013, Q-Chem Inc. Pittsburgh 
 -------------------------------------------------------
 using 3 threads for integral computing
 -------------------------------------------------------
 OpenMP Integral computing Module                
 Release: version 1.0, May 2013, Q-Chem Inc. Pittsburgh 
 -------------------------------------------------------
 ---------------------------------------
  Cycle       Energy         DIIS Error
 ---------------------------------------
    1    -119.6732921405      1.02E-01
    2    -119.0169581548      9.04E-03
    3    -119.0383542159      2.55E-03
    4    -119.0523399233      1.77E-03
    5    -119.0531062913      2.82E-04 Done RCA. Switching to DIIS
    6    -119.0536692463      2.09E-04
    7    -119.0536882176      6.40E-06 Convergence criterion met
 ---------------------------------------
 SCF time:  CPU 33.62 s  wall 11.60 s
 SCF   energy in the small basis set = -119.05368822
 Total energy in the small basis set = -119.05368822
 ----------------------------------------------------
  Cycle       Energy    
 ----------------------------------------------------
    1     -16.5428977419     -1.65E+01
 Long-range K will be added via erf
 Coulomb attenuation parameter = 0.2 bohr**(-1)
 A restricted hybrid HF-DFT SCF calculation will be
 performed using Relaxed Constraint Minimization + Pulay DIIS
 Exchange:     0.2220 Hartree-Fock + 1.0000 wB97X-D + LR-HF
 Correlation:  1.0000 wB97X-D
 Using Euler-Maclaurin-Lebedev (75,302) quadrature formula
 Dispersion:   Grimme D
 SCF converges when DIIS error is below 1.0E-05
 Basis2 calculation detected. Using small basis as guess for larger.
 SCFMinFind is unable to tell whether the solution found is close.
 Resetting ReadMinima to 0 and attempting to follow guess.
 SCFMinFind following SCF Guess.
 using 3 threads for integral computing
 -------------------------------------------------------
 OpenMP Integral computing Module                
 Release: version 1.0, May 2013, Q-Chem Inc. Pittsburgh 
 -------------------------------------------------------
 using 3 threads for integral computing
 -------------------------------------------------------
 OpenMP Integral computing Module                
 Release: version 1.0, May 2013, Q-Chem Inc. Pittsburgh 
 -------------------------------------------------------
 ---------------------------------------
  Cycle       Energy         DIIS Error
 ---------------------------------------
    1    -119.0745160474      4.21E-03
    2    -119.0965737777      6.29E-04 Done RCA. Switching to DIIS
    3    -119.0974634471      4.50E-04
    4    -119.0985763335      4.53E-05
    5    -119.0985915756      9.38E-06 Convergence criterion met
 ---------------------------------------
 SCF time:  CPU 84.31 s  wall 28.49 s
 SCF   energy in the final basis set = -119.09859158
 Total energy in the final basis set = -119.09859158
 
 --------------------------------------------------------------
 
                    Orbital Energies (a.u.)
 --------------------------------------------------------------
 
 Alpha MOs
 -- Occupied --
-10.2760 -10.2734 -10.2618  -0.8902  -0.7855  -0.6832  -0.5493  -0.5261
 -0.4983  -0.4659  -0.4314  -0.3907  -0.3848
 -- Virtual --
  0.0678   0.0850   0.0901   0.0988   0.1233   0.1272   0.1317   0.1425
  0.1473   0.1616   0.1801   0.1921   0.2248   0.2354   0.2404   0.2709
  0.2765   0.2794   0.2929   0.3080   0.3296   0.3422   0.4547   0.4584
  0.4751   0.5144   0.5156   0.5303   0.5361   0.5693   0.5848   0.5980
  0.6248   0.6279   0.6333   0.6466   0.6493   0.6612   0.7130   0.7188
  0.7259   0.7673   0.8230   0.8618   0.8743   0.8783   0.8911   0.9658
  1.0077   1.0331   1.0391   1.0923   1.1333   1.1674   1.1945   1.2116
  1.2323   1.2426   1.2870   1.2907   1.3249   1.3262   1.3306   1.3665
  1.3865   1.3962   1.4201   1.4344   1.4562   1.4761   1.4827   1.4882
  1.5520   1.5749   1.6021   1.6074   1.6170   1.6219   1.6436   1.6916
  1.7684   2.4070   2.4375   2.4877   2.5111   2.5747   2.5930   2.6311
  2.6377   2.7170   2.7651   2.7799   2.8273   2.8626   2.9001   2.9227
  2.9495   2.9580   2.9886   2.9980   3.0491   3.0787   3.1058   3.1148
  3.1485   3.1548   3.1647   3.2051   3.2308   3.2595   3.2845   3.2972
  3.3238   3.3421   3.3469   3.3917   3.4095   3.4292   3.4385   3.4645
  3.4871   3.4898   3.4995   3.5266   3.5420   3.5593   3.5929   3.5966
  3.6148   3.6187   3.6587   3.6886   3.7083   3.7471   3.7921   3.8436
  3.8632   3.8758   3.9025   3.9245   3.9487   3.9746   3.9857   4.0455
  4.0680   4.1061   4.1258   4.1314   4.1356   4.1700   4.1908   4.2487
  4.2717   4.2999   4.3221   4.3717   4.4016   4.4421   4.4611   4.4883
  4.4947   4.5329   4.5971   4.6658   4.7145   4.7953   4.8451   4.8592
  4.9099   4.9411   4.9541   4.9653   5.0133   5.0545   5.0604   5.1150
  5.1351   5.1646   5.2231   5.2665   5.3114   5.3464   5.3670   5.4048
  5.4330   5.5142   5.5473   5.5855   5.6699   5.6767   5.7709   5.7747
  6.0927   6.3088   6.3812   6.4312   6.4476   6.6040  25.2042  25.3921
 25.4910
 --------------------------------------------------------------
 
 -----------------------------------------------------------------
                    Cartesian Multipole Moments
 -----------------------------------------------------------------
    Charge (ESU x 10^10)
                -0.0000
    Dipole Moment (Debye)
         X       0.0332      Y      -0.0036      Z      -0.0419
       Tot       0.0536
    Quadrupole Moments (Debye-Ang)
        XX     -22.1357     XY       0.0540     YY     -21.6342
        XZ       0.3788     YZ       0.0056     ZZ     -22.0402
    Octopole Moments (Debye-Ang^2)
       XXX      -5.9371    XXY       0.0061    XYY      -0.5278
       YYY      -0.0413    XXZ      -1.7933    XYZ      -0.0198
       YYZ       0.7938    XZZ      -1.7518    YZZ      -0.0171
       ZZZ      -0.1846
    Hexadecapole Moments (Debye-Ang^3)
      XXXX    -207.3804   XXXY       0.5438   XXYY     -42.6736
      XYYY       0.1108   YYYY     -43.9199   XXXZ      -5.0090
      XXYZ      -0.0021   XYYZ       0.3760   YYYZ       0.0130
      XXZZ     -45.5255   XYZZ      -0.0150   YYZZ     -17.4191
      XZZZ      -1.8972   YZZZ       0.0287   ZZZZ     -72.0263
 -----------------------------------------------------------------
Archival summary:
1\1\cn0821\SP\ProcedureUnspecified\BasisUnspecified\38\r0852400\SunApr1206:59:332020SunApr1206:59:332020\0\\#,ProcedureUnspecified,BasisUnspecified,\\0,1\C\H,1,1.09259\H,1,1.09259,2,97.2438\C,1,1.46698,2,127.671,3,148.917,0\H,4,1.08621,1,107.295,2,173.144,0\H,4,1.08656,1,107.559,2,45.1525,0\H,4,1.08736,1,97.8714,2,-69.7457,0\C,1,1.58111,2,89.5436,3,-90.5565,0\H,8,1.09358,1,123.853,2,49.1459,0\H,8,1.09718,1,113.506,2,-77.0996,0\H,8,1.09753,1,113.913,2,172.974,0\\\@

 Total job time:  44.28s(wall), 123.07s(cpu) 
 Sun Apr 12 06:59:33 2020

        *************************************************************
        *                                                           *
        *  Thank you very much for using Q-Chem.  Have a nice day.  *
        *                                                           *
        *************************************************************


