                  Welcome to Q-Chem
     A Quantum Leap Into The Future Of Chemistry


 Q-Chem 5.2 (devel), Q-Chem, Inc., Pleasanton, CA (2019)

 Yihan Shao,  Zhengting Gan,  E. Epifanovsky,  A. T. B. Gilbert,  M. Wormit,  
 J. Kussmann,  A. W. Lange,  A. Behn,  Jia Deng,  Xintian Feng,  D. Ghosh,  
 M. Goldey,  P. R. Horn,  L. D. Jacobson,  I. Kaliman,  T. Kus,  A. Landau,  
 Jie Liu,  E. I. Proynov,  R. M. Richard,  R. P. Steele,  E. J. Sundstrom,  
 H. L. Woodcock III,  P. M. Zimmerman,  D. Zuev,  B. Alam,  B. Albrecht,  
 E. Alguire,  S. A. Baeppler,  D. Barton,  Z. Benda,  Y. A. Bernard,  
 E. J. Berquist,  K. B. Bravaya,  H. Burton,  K. Carter-Fenk,  D. Casanova,  
 Chun-Min Chang,  Yunqing Chen,  A. Chien,  K. D. Closser,  M. P. Coons,  
 S. Coriani,  S. Dasgupta,  A. L. Dempwolff,  M. Diedenhofen,  Hainam Do,  
 R. G. Edgar,  Po-Tung Fang,  S. Faraji,  S. Fatehi,  Qingguo Feng,  
 J. Fosso-Tande,  J. Gayvert,  Qinghui Ge,  A. Ghysels,  G. Gidofalvi,  
 J. Gomes,  J. Gonthier,  A. Gunina,  D. Hait,  M. W. D. Hanson-Heine,  
 P. H. P. Harbach,  A. W. Hauser,  M. F. Herbst,  J. E. Herr,  
 E. G. Hohenstein,  Z. C. Holden,  Kerwin Hui,  B. C. Huynh,  T.-C. Jagau,  
 Hyunjun Ji,  B. Kaduk,  K. Khistyaev,  Jaehoon Kim,  P. Klunzinger,  K. Koh,  
 D. Kosenkov,  L. Koulias,  T. Kowalczyk,  C. M. Krauter,  A. Kunitsa,  
 Ka Un Lao,  A. Laurent,  K. V. Lawler,  Joonho Lee,  D. Lefrancois,  
 S. Lehtola,  D. S. Levine,  Yi-Pei Li,  You-Sheng Lin,  Fenglai Liu,  
 Kuan-Yu Liu,  E. Livshits,  M. Loipersberger,  A. Luenser,  P. Manohar,  
 E. Mansoor,  S. F. Manzer,  Shan-Ping Mao,  Yuezhi Mao,  N. Mardirossian,  
 A. V. Marenich,  T. Markovich,  L. A. Martinez-Martinez,  S. A. Maurer,  
 N. J. Mayhall,  S. C. McKenzie,  J.-M. Mewes,  P. Morgante,  A. F. Morrison,  
 J. W. Mullinax,  K. Nanda,  T. S. Nguyen-Beck,  R. Olivares-Amaya,  
 J. A. Parkhill,  S. K. Paul,  Zheng Pei,  T. M. Perrine,  F. Plasser,  
 P. Pokhilko,  S. Prager,  A. Prociuk,  E. Ramos,  B. Rana,  D. R. Rehn,  
 F. Rob,  M. Scheurer,  M. Schneider,  N. Sergueev,  S. M. Sharada,  
 S. Sharma,  D. W. Small,  T. Stauch,  C. J. Stein,  T. Stein,  Yu-Chuan Su,  
 S. P. Veccham,  A. J. W. Thom,  A. Tkatchenko,  T. Tsuchimochi,  
 N. M. Tubman,  L. Vogt,  M. L. Vidal,  O. Vydrov,  M. A. Watson,  J. Wenzel,  
 M. de Wergifosse,  T. A. Wesolowski,  A. White,  J. Witte,  A. Yamada,  
 Jun Yang,  K. Yao,  S. Yeganeh,  S. R. Yost,  Zhi-Qiang You,  A. Zech,  
 Igor Ying Zhang,  Xing Zhang,  Yan Zhao,  Ying Zhu,  B. R. Brooks,  
 G. K. L. Chan,  C. J. Cramer,  M. S. Gordon,  W. J. Hehre,  A. Klamt,  
 M. W. Schmidt,  C. D. Sherrill,  D. G. Truhlar,  A. Aspuru-Guzik,  R. Baer,  
 A. T. Bell,  N. A. Besley,  Jeng-Da Chai,  A. E. DePrince, III,  
 R. A. DiStasio Jr.,  A. Dreuw,  B. D. Dunietz,  T. R. Furlani,  
 Chao-Ping Hsu,  Yousung Jung,  Jing Kong,  D. S. Lambrecht,  WanZhen Liang,  
 C. Ochsenfeld,  V. A. Rassolov,  L. V. Slipchenko,  J. E. Subotnik,  
 T. Van Voorhis,  J. M. Herbert,  A. I. Krylov,  P. M. W. Gill,  M. Head-Gordon

 Contributors to earlier versions of Q-Chem not listed above: 
 R. D. Adamson,  B. Austin,  J. Baker,  G. J. O. Beran,  K. Brandhorst,  
 S. T. Brown,  E. F. C. Byrd,  A. K. Chakraborty,  C.-L. Cheng,  
 Siu Hung Chien,  D. M. Chipman,  D. L. Crittenden,  H. Dachsel,  
 R. J. Doerksen,  A. D. Dutoi,  L. Fusti-Molnar,  W. A. Goddard III,  
 A. Golubeva-Zadorozhnaya,  S. R. Gwaltney,  G. Hawkins,  A. Heyden,  
 S. Hirata,  G. Kedziora,  F. J. Keil,  C. Kelley,  Jihan Kim,  R. A. King,  
 R. Z. Khaliullin,  P. P. Korambath,  W. Kurlancheek,  A. M. Lee,  M. S. Lee,  
 S. V. Levchenko,  Ching Yeh Lin,  D. Liotard,  R. C. Lochan,  I. Lotan,  
 P. E. Maslen,  N. Nair,  D. P. O'Neill,  D. Neuhauser,  E. Neuscamman,  
 C. M. Oana,  R. Olson,  B. Peters,  R. Peverati,  P. A. Pieniazek,  
 Y. M. Rhee,  J. Ritchie,  M. A. Rohrdanz,  E. Rosta,  N. J. Russ,  
 H. F. Schaefer III,  N. E. Schultz,  N. Shenvi,  A. C. Simmonett,  A. Sodt,  
 D. Stuck,  K. S. Thanthiriwatte,  V. Vanovschi,  Tao Wang,  A. Warshel,  
 C. F. Williams,  Q. Wu,  X. Xu,  W. Zhang

 Please cite Q-Chem as follows:
 Y. Shao et al., Mol. Phys. 113, 184-215 (2015)
 DOI: 10.1080/00268976.2014.952696

 Q-Chem 5.2.2 for Intel X86 EM64T Linux

 Parts of Q-Chem use Armadillo 9.800.1 (Horizon Scraper).
 http://arma.sourceforge.net/

 Q-Chem begins on Sun Apr 12 06:26:09 2020  

Host: cn0821
0

     Scratch files written to /tmp/ypli/6721342.srvc1/qchem177751//
Warning:  Did not find "$end" marker in "$molecule" section

Checking the input file for inconsistencies... 	...done.

--------------------------------------------------------------
User input:
--------------------------------------------------------------
$rem
   JOBTYPE  sp
   EXCHANGE   omegaB97X-D
   BASIS   6-311+G(2df,2pd)
   max_scf_cycles   250
   geom_opt_max_cycles   1500
   basis2 6-31G*
   scf_algorithm rca_diis
   SYM_IGNORE  TRUE
   print_input   true
   geom_opt_dmax   80
   pop_mulliken false
   XC_GRID 000075000302
$end

$molecule
0 1
C       1.2621205665     -0.0091172647     0.2831928793
C       0.0000000214     0.0079490219     -0.6010333302
H       1.3555380859     -0.8901088330     0.9195922272
H       1.3375872074     0.8827498749     0.9083160797
H       2.1256097262     0.0109823467     -0.3846867706
C       -1.2621205924     -0.0091172182     0.2831929105
H       -0.0000000711     -0.8738964918     -1.2470644903
H       -0.0000000363     0.8769351347     -1.2636860364
H       -1.3555380205     -0.8901087617     0.9195922719
H       -2.1256096543     0.0109829281     -0.3846868288
H       -1.3375872934     0.8827499291     0.9083161066
--------------------------------------------------------------
 ----------------------------------------------------------------
             Standard Nuclear Orientation (Angstroms)
    I     Atom           X                Y                Z
 ----------------------------------------------------------------
    1      C       1.2621205665    -0.0091172647     0.2831928793
    2      C       0.0000000214     0.0079490219    -0.6010333302
    3      H       1.3555380859    -0.8901088330     0.9195922272
    4      H       1.3375872074     0.8827498749     0.9083160797
    5      H       2.1256097262     0.0109823467    -0.3846867706
    6      C      -1.2621205924    -0.0091172182     0.2831929105
    7      H      -0.0000000711    -0.8738964918    -1.2470644903
    8      H      -0.0000000363     0.8769351347    -1.2636860364
    9      H      -1.3555380205    -0.8901087617     0.9195922719
   10      H      -2.1256096543     0.0109829281    -0.3846868288
   11      H      -1.3375872934     0.8827499291     0.9083161066
 ----------------------------------------------------------------
 Nuclear Repulsion Energy =          82.29561836 hartrees
 There are       13 alpha and       13 beta electrons
 Requested basis set is 6-311+G(2df,2pd)
 There are 72 shells and 214 basis functions

 Total QAlloc Memory Limit   2000 MB
 Mega-Array Size       188 MB
 MEM_STATIC part       192 MB

                       Distance Matrix (Angstroms)
             C (  1)   C (  2)   H (  3)   H (  4)   H (  5)   C (  6)
   C (  2)  1.541134
   H (  3)  1.090815  2.226273
   H (  4)  1.091742  2.198307  1.772985
   H (  5)  1.091825  2.136593  1.762419  1.747231
   C (  6)  2.524241  1.541135  2.834305  2.818632  3.452996
   H (  7)  2.163904  1.093164  2.555807  3.085549  2.458642  2.163904
   H (  8)  2.184233  1.092815  3.118755  2.550836  2.457790  2.184232
   H (  9)  2.834305  2.226273  2.711076  3.224295  3.825114  1.090815
   H ( 10)  3.452996  2.136593  3.825114  3.798100  4.251219  1.091824
   H ( 11)  2.818632  2.198307  3.224295  2.675175  3.798101  1.091742
             H (  7)   H (  8)   H (  9)   H ( 10)
   H (  8)  1.750911
   H (  9)  2.555807  3.118755
   H ( 10)  2.458642  2.457789  1.762419
   H ( 11)  3.085549  2.550836  1.772985  1.747230
 
 A cutoff of  1.0D-09 yielded   2528 shell pairs
 There are     22530 function pairs (     27705 Cartesian)
 Smallest overlap matrix eigenvalue = 8.95E-05

 Scale SEOQF with 1.000000e-01/1.000000e-01/1.000000e-01

 Standard Electronic Orientation quadrupole field applied
 Nucleus-field energy     =     0.0000000005 hartrees
 Requested basis set is 6-31G(d)
 There are 28 shells and 58 basis functions
 A cutoff of  1.0D-09 yielded    402 shell pairs
 There are      1773 function pairs (      1968 Cartesian)
 Smallest overlap matrix eigenvalue = 6.91E-03
 Guess from superposition of atomic densities
 Warning:  Energy on first SCF cycle will be non-variational
 SAD guess density has 26.000000 electrons
 Long-range K will be added via erf
 Coulomb attenuation parameter = 0.2 bohr**(-1)
 A restricted hybrid HF-DFT SCF calculation will be
 performed using Relaxed Constraint Minimization + Pulay DIIS
 Exchange:     0.2220 Hartree-Fock + 1.0000 wB97X-D + LR-HF
 Correlation:  1.0000 wB97X-D
 Using Euler-Maclaurin-Lebedev (75,302) quadrature formula
 Dispersion:   Grimme D
 SCF converges when DIIS error is below 1.0E-04
 using 3 threads for integral computing
 -------------------------------------------------------
 OpenMP Integral computing Module                
 Release: version 1.0, May 2013, Q-Chem Inc. Pittsburgh 
 -------------------------------------------------------
 using 3 threads for integral computing
 -------------------------------------------------------
 OpenMP Integral computing Module                
 Release: version 1.0, May 2013, Q-Chem Inc. Pittsburgh 
 -------------------------------------------------------
 ---------------------------------------
  Cycle       Energy         DIIS Error
 ---------------------------------------
    1    -119.5722786026      9.89E-02
    2    -119.0651838915      8.91E-03
    3    -119.0858345694      2.45E-03
    4    -119.0994203327      1.67E-03
    5    -119.1001079601      2.67E-04 Done RCA. Switching to DIIS
    6    -119.1006098458      1.96E-04
    7    -119.1006264691      5.10E-06 Convergence criterion met
 ---------------------------------------
 SCF time:  CPU 33.58 s  wall 11.59 s
 SCF   energy in the small basis set = -119.10062647
 Total energy in the small basis set = -119.10062647
 ----------------------------------------------------
  Cycle       Energy    
 ----------------------------------------------------
    1     -16.5260769903     -1.65E+01
 Long-range K will be added via erf
 Coulomb attenuation parameter = 0.2 bohr**(-1)
 A restricted hybrid HF-DFT SCF calculation will be
 performed using Relaxed Constraint Minimization + Pulay DIIS
 Exchange:     0.2220 Hartree-Fock + 1.0000 wB97X-D + LR-HF
 Correlation:  1.0000 wB97X-D
 Using Euler-Maclaurin-Lebedev (75,302) quadrature formula
 Dispersion:   Grimme D
 SCF converges when DIIS error is below 1.0E-05
 Basis2 calculation detected. Using small basis as guess for larger.
 SCFMinFind is unable to tell whether the solution found is close.
 Resetting ReadMinima to 0 and attempting to follow guess.
 SCFMinFind following SCF Guess.
 using 3 threads for integral computing
 -------------------------------------------------------
 OpenMP Integral computing Module                
 Release: version 1.0, May 2013, Q-Chem Inc. Pittsburgh 
 -------------------------------------------------------
 using 3 threads for integral computing
 -------------------------------------------------------
 OpenMP Integral computing Module                
 Release: version 1.0, May 2013, Q-Chem Inc. Pittsburgh 
 -------------------------------------------------------
 ---------------------------------------
  Cycle       Energy         DIIS Error
 ---------------------------------------
    1    -119.1195481373      4.21E-03
    2    -119.1415939158      5.97E-04 Done RCA. Switching to DIIS
    3    -119.1424287951      4.18E-04
    4    -119.1433870506      4.55E-05
    5    -119.1434017996      9.21E-06 Convergence criterion met
 ---------------------------------------
 SCF time:  CPU 84.91 s  wall 28.73 s
 SCF   energy in the final basis set = -119.14340180
 Total energy in the final basis set = -119.14340180
 
 --------------------------------------------------------------
 
                    Orbital Energies (a.u.)
 --------------------------------------------------------------
 
 Alpha MOs
 -- Occupied --
-10.2779 -10.2650 -10.2650  -0.8766  -0.7752  -0.6792  -0.5432  -0.5172
 -0.4851  -0.4651  -0.4257  -0.4115  -0.4032
 -- Virtual --
  0.0687   0.0860   0.0903   0.0996   0.1261   0.1301   0.1333   0.1411
  0.1432   0.1699   0.1719   0.1907   0.2384   0.2396   0.2439   0.2662
  0.2834   0.2840   0.3030   0.3100   0.3386   0.3454   0.4588   0.4608
  0.4728   0.5132   0.5179   0.5219   0.5397   0.5593   0.5848   0.5856
  0.6139   0.6151   0.6471   0.6492   0.6556   0.6615   0.7059   0.7254
  0.7281   0.7689   0.8143   0.8549   0.8732   0.8744   0.8819   0.9554
  0.9954   1.0526   1.0586   1.1460   1.1563   1.1701   1.2031   1.2082
  1.2131   1.2275   1.2572   1.2689   1.2740   1.2836   1.3195   1.3803
  1.3916   1.3974   1.4024   1.4558   1.4670   1.4676   1.4767   1.4877
  1.5157   1.5814   1.6042   1.6071   1.6399   1.6564   1.6880   1.7062
  1.7075   2.3606   2.4669   2.4755   2.5016   2.5396   2.5509   2.5869
  2.6273   2.7014   2.8139   2.8220   2.8723   2.8813   2.9139   2.9221
  2.9345   2.9440   2.9963   3.0113   3.0577   3.0735   3.0840   3.0939
  3.1263   3.1453   3.1777   3.1985   3.2020   3.2238   3.2830   3.3118
  3.3225   3.3318   3.3339   3.3436   3.3509   3.3713   3.3951   3.4556
  3.4647   3.4753   3.4889   3.5308   3.5618   3.5690   3.6024   3.6216
  3.6300   3.6604   3.6811   3.7091   3.7732   3.8233   3.8660   3.8770
  3.9046   3.9153   3.9351   3.9632   3.9735   4.0094   4.0254   4.0503
  4.0706   4.1029   4.1160   4.1204   4.1529   4.1586   4.1786   4.1823
  4.2085   4.2469   4.2486   4.3416   4.3580   4.4075   4.4153   4.4286
  4.4509   4.5332   4.5646   4.5761   4.6756   4.8007   4.8542   4.8833
  4.9271   4.9604   4.9769   4.9835   5.0145   5.0153   5.0683   5.1010
  5.1407   5.2439   5.2564   5.2742   5.2779   5.3348   5.3434   5.3557
  5.3842   5.4161   5.4524   5.4914   5.5024   5.5267   5.5942   5.6917
  5.9301   6.3688   6.3857   6.3971   6.4238   6.4525  25.1760  25.4275
 25.4453
 --------------------------------------------------------------
 
 -----------------------------------------------------------------
                    Cartesian Multipole Moments
 -----------------------------------------------------------------
    Charge (ESU x 10^10)
                 0.0000
    Dipole Moment (Debye)
         X       0.0000      Y       0.0061      Z      -0.1149
       Tot       0.1150
    Quadrupole Moments (Debye-Ang)
        XX     -22.4896     XY      -0.0000     YY     -21.2737
        XZ       0.0000     YZ      -0.1182     ZZ     -21.6264
    Octopole Moments (Debye-Ang^2)
       XXX       0.0000    XXY       0.0202    XYY       0.0000
       YYY       0.1142    XXZ      -1.2196    XYZ       0.0000
       YYZ       0.3857    XZZ      -0.0000    YZZ       0.0334
       ZZZ      -0.9852
    Hexadecapole Moments (Debye-Ang^3)
      XXXX    -206.9597   XXXY      -0.0000   XXYY     -41.8027
      XYYY       0.0000   YYYY     -44.0063   XXXZ       0.0000
      XXYZ      -0.2087   XYYZ       0.0000   YYYZ       0.1338
      XXZZ     -45.0874   XYZZ       0.0000   YYZZ     -17.1598
      XZZZ       0.0000   YZZZ      -0.0701   ZZZZ     -73.6232
 -----------------------------------------------------------------
Archival summary:
1\1\cn0821\SP\ProcedureUnspecified\BasisUnspecified\38\r0852400\SunApr1206:26:542020SunApr1206:26:542020\0\\#,ProcedureUnspecified,BasisUnspecified,\\0,1\C\H,1,1.09282\H,1,1.09316,2,106.446\C,1,1.54113,2,110.898,3,118.762,0\H,4,1.09081,1,114.445,2,-175.979,0\H,4,1.09174,1,112.092,2,59.7139,0\H,4,1.09182,1,107.248,2,-56.5852,0\C,1,1.54113,2,110.898,3,-118.762,0\H,8,1.09081,1,114.445,2,175.979,0\H,8,1.09174,1,112.092,2,-59.7139,0\H,8,1.09182,1,107.248,2,56.5852,0\\\@

 Total job time:  44.72s(wall), 123.82s(cpu) 
 Sun Apr 12 06:26:54 2020

        *************************************************************
        *                                                           *
        *  Thank you very much for using Q-Chem.  Have a nice day.  *
        *                                                           *
        *************************************************************


