                  Welcome to Q-Chem
     A Quantum Leap Into The Future Of Chemistry


 Q-Chem 5.2 (devel), Q-Chem, Inc., Pleasanton, CA (2019)

 Yihan Shao,  Zhengting Gan,  E. Epifanovsky,  A. T. B. Gilbert,  M. Wormit,  
 J. Kussmann,  A. W. Lange,  A. Behn,  Jia Deng,  Xintian Feng,  D. Ghosh,  
 M. Goldey,  P. R. Horn,  L. D. Jacobson,  I. Kaliman,  T. Kus,  A. Landau,  
 Jie Liu,  E. I. Proynov,  R. M. Richard,  R. P. Steele,  E. J. Sundstrom,  
 H. L. Woodcock III,  P. M. Zimmerman,  D. Zuev,  B. Alam,  B. Albrecht,  
 E. Alguire,  S. A. Baeppler,  D. Barton,  Z. Benda,  Y. A. Bernard,  
 E. J. Berquist,  K. B. Bravaya,  H. Burton,  K. Carter-Fenk,  D. Casanova,  
 Chun-Min Chang,  Yunqing Chen,  A. Chien,  K. D. Closser,  M. P. Coons,  
 S. Coriani,  S. Dasgupta,  A. L. Dempwolff,  M. Diedenhofen,  Hainam Do,  
 R. G. Edgar,  Po-Tung Fang,  S. Faraji,  S. Fatehi,  Qingguo Feng,  
 J. Fosso-Tande,  J. Gayvert,  Qinghui Ge,  A. Ghysels,  G. Gidofalvi,  
 J. Gomes,  J. Gonthier,  A. Gunina,  D. Hait,  M. W. D. Hanson-Heine,  
 P. H. P. Harbach,  A. W. Hauser,  M. F. Herbst,  J. E. Herr,  
 E. G. Hohenstein,  Z. C. Holden,  Kerwin Hui,  B. C. Huynh,  T.-C. Jagau,  
 Hyunjun Ji,  B. Kaduk,  K. Khistyaev,  Jaehoon Kim,  P. Klunzinger,  K. Koh,  
 D. Kosenkov,  L. Koulias,  T. Kowalczyk,  C. M. Krauter,  A. Kunitsa,  
 Ka Un Lao,  A. Laurent,  K. V. Lawler,  Joonho Lee,  D. Lefrancois,  
 S. Lehtola,  D. S. Levine,  Yi-Pei Li,  You-Sheng Lin,  Fenglai Liu,  
 Kuan-Yu Liu,  E. Livshits,  M. Loipersberger,  A. Luenser,  P. Manohar,  
 E. Mansoor,  S. F. Manzer,  Shan-Ping Mao,  Yuezhi Mao,  N. Mardirossian,  
 A. V. Marenich,  T. Markovich,  L. A. Martinez-Martinez,  S. A. Maurer,  
 N. J. Mayhall,  S. C. McKenzie,  J.-M. Mewes,  P. Morgante,  A. F. Morrison,  
 J. W. Mullinax,  K. Nanda,  T. S. Nguyen-Beck,  R. Olivares-Amaya,  
 J. A. Parkhill,  S. K. Paul,  Zheng Pei,  T. M. Perrine,  F. Plasser,  
 P. Pokhilko,  S. Prager,  A. Prociuk,  E. Ramos,  B. Rana,  D. R. Rehn,  
 F. Rob,  M. Scheurer,  M. Schneider,  N. Sergueev,  S. M. Sharada,  
 S. Sharma,  D. W. Small,  T. Stauch,  C. J. Stein,  T. Stein,  Yu-Chuan Su,  
 S. P. Veccham,  A. J. W. Thom,  A. Tkatchenko,  T. Tsuchimochi,  
 N. M. Tubman,  L. Vogt,  M. L. Vidal,  O. Vydrov,  M. A. Watson,  J. Wenzel,  
 M. de Wergifosse,  T. A. Wesolowski,  A. White,  J. Witte,  A. Yamada,  
 Jun Yang,  K. Yao,  S. Yeganeh,  S. R. Yost,  Zhi-Qiang You,  A. Zech,  
 Igor Ying Zhang,  Xing Zhang,  Yan Zhao,  Ying Zhu,  B. R. Brooks,  
 G. K. L. Chan,  C. J. Cramer,  M. S. Gordon,  W. J. Hehre,  A. Klamt,  
 M. W. Schmidt,  C. D. Sherrill,  D. G. Truhlar,  A. Aspuru-Guzik,  R. Baer,  
 A. T. Bell,  N. A. Besley,  Jeng-Da Chai,  A. E. DePrince, III,  
 R. A. DiStasio Jr.,  A. Dreuw,  B. D. Dunietz,  T. R. Furlani,  
 Chao-Ping Hsu,  Yousung Jung,  Jing Kong,  D. S. Lambrecht,  WanZhen Liang,  
 C. Ochsenfeld,  V. A. Rassolov,  L. V. Slipchenko,  J. E. Subotnik,  
 T. Van Voorhis,  J. M. Herbert,  A. I. Krylov,  P. M. W. Gill,  M. Head-Gordon

 Contributors to earlier versions of Q-Chem not listed above: 
 R. D. Adamson,  B. Austin,  J. Baker,  G. J. O. Beran,  K. Brandhorst,  
 S. T. Brown,  E. F. C. Byrd,  A. K. Chakraborty,  C.-L. Cheng,  
 Siu Hung Chien,  D. M. Chipman,  D. L. Crittenden,  H. Dachsel,  
 R. J. Doerksen,  A. D. Dutoi,  L. Fusti-Molnar,  W. A. Goddard III,  
 A. Golubeva-Zadorozhnaya,  S. R. Gwaltney,  G. Hawkins,  A. Heyden,  
 S. Hirata,  G. Kedziora,  F. J. Keil,  C. Kelley,  Jihan Kim,  R. A. King,  
 R. Z. Khaliullin,  P. P. Korambath,  W. Kurlancheek,  A. M. Lee,  M. S. Lee,  
 S. V. Levchenko,  Ching Yeh Lin,  D. Liotard,  R. C. Lochan,  I. Lotan,  
 P. E. Maslen,  N. Nair,  D. P. O'Neill,  D. Neuhauser,  E. Neuscamman,  
 C. M. Oana,  R. Olson,  B. Peters,  R. Peverati,  P. A. Pieniazek,  
 Y. M. Rhee,  J. Ritchie,  M. A. Rohrdanz,  E. Rosta,  N. J. Russ,  
 H. F. Schaefer III,  N. E. Schultz,  N. Shenvi,  A. C. Simmonett,  A. Sodt,  
 D. Stuck,  K. S. Thanthiriwatte,  V. Vanovschi,  Tao Wang,  A. Warshel,  
 C. F. Williams,  Q. Wu,  X. Xu,  W. Zhang

 Please cite Q-Chem as follows:
 Y. Shao et al., Mol. Phys. 113, 184-215 (2015)
 DOI: 10.1080/00268976.2014.952696

 Q-Chem 5.2.2 for Intel X86 EM64T Linux

 Parts of Q-Chem use Armadillo 9.800.1 (Horizon Scraper).
 http://arma.sourceforge.net/

 Q-Chem begins on Sun Apr 12 08:09:26 2020  

Host: cn0821
0

     Scratch files written to /tmp/ypli/6721342.srvc1/qchem193607//
Warning:  Did not find "$end" marker in "$molecule" section

Checking the input file for inconsistencies... 	...done.

--------------------------------------------------------------
User input:
--------------------------------------------------------------
$rem
   JOBTYPE  sp
   EXCHANGE   omegaB97X-D
   BASIS   6-311+G(2df,2pd)
   max_scf_cycles   250
   geom_opt_max_cycles   1500
   basis2 6-31G*
   scf_algorithm rca_diis
   SYM_IGNORE  TRUE
   print_input   true
   geom_opt_dmax   80
   pop_mulliken false
   XC_GRID 000075000302
$end

$molecule
0 1
C       1.2651251185     -0.0000291576     0.2459575977
C       -0.0000002207     0.0001018917     -0.6240827915
H       1.3041295022     -0.8738885652     0.8837317117
H       1.3040794926     0.8743007305     0.8842390324
H       2.1882465757     -0.0000345313     -0.3942742921
C       -1.2651256750     -0.0000291748     0.2459578835
H       -0.0000001913     -0.6986209132     -1.1375432495
H       -0.0000003883     0.6978216051     -1.1366361549
H       -1.3041296222     -0.8738857620     0.8837300334
H       -2.1882448091     -0.0000341352     -0.3942724426
H       -1.3040798428     0.8742986781     0.8842376909
--------------------------------------------------------------
 ----------------------------------------------------------------
             Standard Nuclear Orientation (Angstroms)
    I     Atom           X                Y                Z
 ----------------------------------------------------------------
    1      C       1.2651251185    -0.0000291576     0.2459575977
    2      C      -0.0000002207     0.0001018917    -0.6240827915
    3      H       1.3041295022    -0.8738885652     0.8837317117
    4      H       1.3040794926     0.8743007305     0.8842390324
    5      H       2.1882465757    -0.0000345313    -0.3942742921
    6      C      -1.2651256750    -0.0000291748     0.2459578835
    7      H      -0.0000001913    -0.6986209132    -1.1375432495
    8      H      -0.0000003883     0.6978216051    -1.1366361549
    9      H      -1.3041296222    -0.8738857620     0.8837300334
   10      H      -2.1882448091    -0.0000341352    -0.3942724426
   11      H      -1.3040798428     0.8742986781     0.8842376909
 ----------------------------------------------------------------
 Nuclear Repulsion Energy =          84.56284340 hartrees
 There are       13 alpha and       13 beta electrons
 Requested basis set is 6-311+G(2df,2pd)
 There are 72 shells and 214 basis functions

 Total QAlloc Memory Limit   2000 MB
 Mega-Array Size       188 MB
 MEM_STATIC part       192 MB

                       Distance Matrix (Angstroms)
             C (  1)   C (  2)   H (  3)   H (  4)   H (  5)   C (  6)
   C (  2)  1.535419
   H (  3)  1.082547  2.176722
   H (  4)  1.083224  2.177127  1.748189
   H (  5)  1.123410  2.200281  1.782858  1.783483
   C (  6)  2.530251  1.535420  2.787733  2.787951  3.512218
   H (  7)  2.000662  0.867096  2.411851  2.874423  2.414311  2.000662
   H (  8)  1.999776  0.865750  2.872789  2.411577  2.413820  1.999776
   H (  9)  2.787732  2.176719  2.608259  3.139890  3.820157  1.082543
   H ( 10)  3.512216  2.200279  3.820156  3.820390  4.376491  1.123407
   H ( 11)  2.787950  2.177125  3.139891  2.608159  3.820392  1.083221
             H (  7)   H (  8)   H (  9)   H ( 10)
   H (  8)  1.396443
   H (  9)  2.411849  2.872786
   H ( 10)  2.414309  2.413819  1.782854
   H ( 11)  2.874421  2.411576  1.748185  1.783478
 
 A cutoff of  1.0D-09 yielded   2544 shell pairs
 There are     22638 function pairs (     27819 Cartesian)
 Smallest overlap matrix eigenvalue = 8.80E-05

 Scale SEOQF with 1.000000e-01/1.000000e-01/1.000000e-01

 Standard Electronic Orientation quadrupole field applied
 Nucleus-field energy     =     0.0000000006 hartrees
 Requested basis set is 6-31G(d)
 There are 28 shells and 58 basis functions
 A cutoff of  1.0D-09 yielded    402 shell pairs
 There are      1773 function pairs (      1968 Cartesian)
 Smallest overlap matrix eigenvalue = 5.94E-03
 Guess from superposition of atomic densities
 Warning:  Energy on first SCF cycle will be non-variational
 SAD guess density has 26.000000 electrons
 Long-range K will be added via erf
 Coulomb attenuation parameter = 0.2 bohr**(-1)
 A restricted hybrid HF-DFT SCF calculation will be
 performed using Relaxed Constraint Minimization + Pulay DIIS
 Exchange:     0.2220 Hartree-Fock + 1.0000 wB97X-D + LR-HF
 Correlation:  1.0000 wB97X-D
 Using Euler-Maclaurin-Lebedev (75,302) quadrature formula
 Dispersion:   Grimme D
 SCF converges when DIIS error is below 1.0E-04
 using 3 threads for integral computing
 -------------------------------------------------------
 OpenMP Integral computing Module                
 Release: version 1.0, May 2013, Q-Chem Inc. Pittsburgh 
 -------------------------------------------------------
 using 3 threads for integral computing
 -------------------------------------------------------
 OpenMP Integral computing Module                
 Release: version 1.0, May 2013, Q-Chem Inc. Pittsburgh 
 -------------------------------------------------------
 ---------------------------------------
  Cycle       Energy         DIIS Error
 ---------------------------------------
    1    -119.8044610438      1.12E-01
    2    -118.9502229425      1.04E-02
    3    -118.9793964258      3.37E-03
    4    -118.9956851081      2.29E-03
    5    -118.9969848312      4.56E-04 Done RCA. Switching to DIIS
    6    -118.9978301171      3.24E-04
    7    -118.9978739818      7.42E-06 Convergence criterion met
 ---------------------------------------
 SCF time:  CPU 33.50 s  wall 11.57 s
 SCF   energy in the small basis set = -118.99787398
 Total energy in the small basis set = -118.99787398
 ----------------------------------------------------
  Cycle       Energy    
 ----------------------------------------------------
    1     -16.7024674110     -1.67E+01
 Long-range K will be added via erf
 Coulomb attenuation parameter = 0.2 bohr**(-1)
 A restricted hybrid HF-DFT SCF calculation will be
 performed using Relaxed Constraint Minimization + Pulay DIIS
 Exchange:     0.2220 Hartree-Fock + 1.0000 wB97X-D + LR-HF
 Correlation:  1.0000 wB97X-D
 Using Euler-Maclaurin-Lebedev (75,302) quadrature formula
 Dispersion:   Grimme D
 SCF converges when DIIS error is below 1.0E-05
 Basis2 calculation detected. Using small basis as guess for larger.
 SCFMinFind is unable to tell whether the solution found is close.
 Resetting ReadMinima to 0 and attempting to follow guess.
 SCFMinFind following SCF Guess.
 using 3 threads for integral computing
 -------------------------------------------------------
 OpenMP Integral computing Module                
 Release: version 1.0, May 2013, Q-Chem Inc. Pittsburgh 
 -------------------------------------------------------
 using 3 threads for integral computing
 -------------------------------------------------------
 OpenMP Integral computing Module                
 Release: version 1.0, May 2013, Q-Chem Inc. Pittsburgh 
 -------------------------------------------------------
 ---------------------------------------
  Cycle       Energy         DIIS Error
 ---------------------------------------
    1    -119.0232614947      4.23E-03
    2    -119.0454027042      6.11E-04 Done RCA. Switching to DIIS
    3    -119.0463384122      4.01E-04
    4    -119.0471978924      4.35E-05
    5    -119.0472110474      7.64E-06 Convergence criterion met
 ---------------------------------------
 SCF time:  CPU 85.70 s  wall 28.98 s
 SCF   energy in the final basis set = -119.04721105
 Total energy in the final basis set = -119.04721105
 
 --------------------------------------------------------------
 
                    Orbital Energies (a.u.)
 --------------------------------------------------------------
 
 Alpha MOs
 -- Occupied --
-10.2646 -10.2646 -10.2219  -0.8983  -0.7718  -0.7143  -0.5728  -0.5169
 -0.4804  -0.4637  -0.4330  -0.4275  -0.4084
 -- Virtual --
  0.0681   0.0870   0.0915   0.1008   0.1259   0.1305   0.1340   0.1412
  0.1468   0.1676   0.1738   0.1919   0.2384   0.2461   0.2493   0.2781
  0.2833   0.3079   0.3091   0.3119   0.3494   0.3507   0.4543   0.4680
  0.4726   0.5146   0.5150   0.5215   0.5454   0.5719   0.5896   0.6097
  0.6210   0.6267   0.6358   0.6661   0.6738   0.7035   0.7156   0.7294
  0.7757   0.8049   0.8457   0.8711   0.8881   0.9004   0.9090   0.9734
  1.0039   1.0483   1.0908   1.1307   1.1352   1.1898   1.2113   1.2161
  1.2479   1.2802   1.2934   1.2951   1.3203   1.3235   1.3454   1.3794
  1.3816   1.3863   1.3869   1.4604   1.4755   1.4758   1.5149   1.5339
  1.5406   1.5750   1.6144   1.6537   1.6855   1.6991   1.7160   1.7453
  1.9005   2.3386   2.3951   2.4368   2.5202   2.5285   2.6002   2.6232
  2.6764   2.7083   2.8280   2.8382   2.8760   2.8976   2.9297   2.9306
  2.9562   2.9839   3.0236   3.0347   3.0582   3.0727   3.0743   3.0982
  3.1703   3.1735   3.1805   3.2411   3.2453   3.2586   3.2880   3.3082
  3.3311   3.3438   3.3674   3.3703   3.4037   3.4097   3.4620   3.4661
  3.4907   3.5021   3.5318   3.5394   3.5754   3.5769   3.5825   3.6173
  3.6909   3.7062   3.7409   3.7795   3.8272   3.8529   3.8633   3.9159
  3.9187   3.9222   3.9743   3.9841   3.9945   4.0136   4.0716   4.1207
  4.1211   4.1406   4.1552   4.1690   4.2163   4.2173   4.2273   4.2774
  4.3010   4.3662   4.3891   4.3981   4.4140   4.4232   4.4645   4.5105
  4.6747   4.7114   4.7192   4.7331   4.8119   4.8229   4.8720   4.9418
  4.9465   5.0105   5.0331   5.1182   5.1194   5.1322   5.2009   5.2174
  5.2794   5.2857   5.2859   5.2940   5.3535   5.3776   5.4478   5.4582
  5.5168   5.6684   5.8148   5.8300   5.9649   6.1088   6.1338   6.2053
  6.3540   6.3902   6.4227   6.4280   6.7097   7.1046  25.3947  25.4215
 25.4703
 --------------------------------------------------------------
 
 -----------------------------------------------------------------
                    Cartesian Multipole Moments
 -----------------------------------------------------------------
    Charge (ESU x 10^10)
                 0.0000
    Dipole Moment (Debye)
         X      -0.0000      Y      -0.0006      Z      -0.2605
       Tot       0.2605
    Quadrupole Moments (Debye-Ang)
        XX     -22.2413     XY      -0.0000     YY     -21.0678
        XZ      -0.0000     YZ      -0.0003     ZZ     -21.1292
    Octopole Moments (Debye-Ang^2)
       XXX      -0.0000    XXY      -0.0036    XYY      -0.0000
       YYY      -0.0021    XXZ      -1.7545    XYZ       0.0000
       YYZ       0.5092    XZZ      -0.0000    YZZ      -0.0005
       ZZZ      -1.3703
    Hexadecapole Moments (Debye-Ang^3)
      XXXX    -207.0503   XXXY       0.0000   XXYY     -41.9537
      XYYY       0.0000   YYYY     -39.5391   XXXZ      -0.0000
      XXYZ      -0.0051   XYYZ       0.0000   YYYZ      -0.0105
      XXZZ     -44.4589   XYZZ       0.0000   YYZZ     -15.7714
      XZZZ      -0.0000   YZZZ      -0.0109   ZZZZ     -65.1284
 -----------------------------------------------------------------
Archival summary:
1\1\cn0821\SP\ProcedureUnspecified\BasisUnspecified\38\r0852400\SunApr1208:10:112020SunApr1208:10:112020\0\\#,ProcedureUnspecified,BasisUnspecified,\\0,1\C\H,1,0.86575\H,1,0.867096,2,107.388\C,1,1.53542,2,109.606,3,118.994,0\H,4,1.08255,1,111.321,2,-178.759,0\H,4,1.08322,1,111.312,2,61.1394,0\H,4,1.12341,1,110.74,2,-58.8114,0\C,1,1.53542,2,109.606,3,-118.994,0\H,8,1.08254,1,111.321,2,178.759,0\H,8,1.08322,1,111.312,2,-61.1394,0\H,8,1.12341,1,110.74,2,58.8113,0\\\@

 Total job time:  44.89s(wall), 124.52s(cpu) 
 Sun Apr 12 08:10:11 2020

        *************************************************************
        *                                                           *
        *  Thank you very much for using Q-Chem.  Have a nice day.  *
        *                                                           *
        *************************************************************


