                  Welcome to Q-Chem
     A Quantum Leap Into The Future Of Chemistry


 Q-Chem 5.2 (devel), Q-Chem, Inc., Pleasanton, CA (2019)

 Yihan Shao,  Zhengting Gan,  E. Epifanovsky,  A. T. B. Gilbert,  M. Wormit,  
 J. Kussmann,  A. W. Lange,  A. Behn,  Jia Deng,  Xintian Feng,  D. Ghosh,  
 M. Goldey,  P. R. Horn,  L. D. Jacobson,  I. Kaliman,  T. Kus,  A. Landau,  
 Jie Liu,  E. I. Proynov,  R. M. Richard,  R. P. Steele,  E. J. Sundstrom,  
 H. L. Woodcock III,  P. M. Zimmerman,  D. Zuev,  B. Alam,  B. Albrecht,  
 E. Alguire,  S. A. Baeppler,  D. Barton,  Z. Benda,  Y. A. Bernard,  
 E. J. Berquist,  K. B. Bravaya,  H. Burton,  K. Carter-Fenk,  D. Casanova,  
 Chun-Min Chang,  Yunqing Chen,  A. Chien,  K. D. Closser,  M. P. Coons,  
 S. Coriani,  S. Dasgupta,  A. L. Dempwolff,  M. Diedenhofen,  Hainam Do,  
 R. G. Edgar,  Po-Tung Fang,  S. Faraji,  S. Fatehi,  Qingguo Feng,  
 J. Fosso-Tande,  J. Gayvert,  Qinghui Ge,  A. Ghysels,  G. Gidofalvi,  
 J. Gomes,  J. Gonthier,  A. Gunina,  D. Hait,  M. W. D. Hanson-Heine,  
 P. H. P. Harbach,  A. W. Hauser,  M. F. Herbst,  J. E. Herr,  
 E. G. Hohenstein,  Z. C. Holden,  Kerwin Hui,  B. C. Huynh,  T.-C. Jagau,  
 Hyunjun Ji,  B. Kaduk,  K. Khistyaev,  Jaehoon Kim,  P. Klunzinger,  K. Koh,  
 D. Kosenkov,  L. Koulias,  T. Kowalczyk,  C. M. Krauter,  A. Kunitsa,  
 Ka Un Lao,  A. Laurent,  K. V. Lawler,  Joonho Lee,  D. Lefrancois,  
 S. Lehtola,  D. S. Levine,  Yi-Pei Li,  You-Sheng Lin,  Fenglai Liu,  
 Kuan-Yu Liu,  E. Livshits,  M. Loipersberger,  A. Luenser,  P. Manohar,  
 E. Mansoor,  S. F. Manzer,  Shan-Ping Mao,  Yuezhi Mao,  N. Mardirossian,  
 A. V. Marenich,  T. Markovich,  L. A. Martinez-Martinez,  S. A. Maurer,  
 N. J. Mayhall,  S. C. McKenzie,  J.-M. Mewes,  P. Morgante,  A. F. Morrison,  
 J. W. Mullinax,  K. Nanda,  T. S. Nguyen-Beck,  R. Olivares-Amaya,  
 J. A. Parkhill,  S. K. Paul,  Zheng Pei,  T. M. Perrine,  F. Plasser,  
 P. Pokhilko,  S. Prager,  A. Prociuk,  E. Ramos,  B. Rana,  D. R. Rehn,  
 F. Rob,  M. Scheurer,  M. Schneider,  N. Sergueev,  S. M. Sharada,  
 S. Sharma,  D. W. Small,  T. Stauch,  C. J. Stein,  T. Stein,  Yu-Chuan Su,  
 S. P. Veccham,  A. J. W. Thom,  A. Tkatchenko,  T. Tsuchimochi,  
 N. M. Tubman,  L. Vogt,  M. L. Vidal,  O. Vydrov,  M. A. Watson,  J. Wenzel,  
 M. de Wergifosse,  T. A. Wesolowski,  A. White,  J. Witte,  A. Yamada,  
 Jun Yang,  K. Yao,  S. Yeganeh,  S. R. Yost,  Zhi-Qiang You,  A. Zech,  
 Igor Ying Zhang,  Xing Zhang,  Yan Zhao,  Ying Zhu,  B. R. Brooks,  
 G. K. L. Chan,  C. J. Cramer,  M. S. Gordon,  W. J. Hehre,  A. Klamt,  
 M. W. Schmidt,  C. D. Sherrill,  D. G. Truhlar,  A. Aspuru-Guzik,  R. Baer,  
 A. T. Bell,  N. A. Besley,  Jeng-Da Chai,  A. E. DePrince, III,  
 R. A. DiStasio Jr.,  A. Dreuw,  B. D. Dunietz,  T. R. Furlani,  
 Chao-Ping Hsu,  Yousung Jung,  Jing Kong,  D. S. Lambrecht,  WanZhen Liang,  
 C. Ochsenfeld,  V. A. Rassolov,  L. V. Slipchenko,  J. E. Subotnik,  
 T. Van Voorhis,  J. M. Herbert,  A. I. Krylov,  P. M. W. Gill,  M. Head-Gordon

 Contributors to earlier versions of Q-Chem not listed above: 
 R. D. Adamson,  B. Austin,  J. Baker,  G. J. O. Beran,  K. Brandhorst,  
 S. T. Brown,  E. F. C. Byrd,  A. K. Chakraborty,  C.-L. Cheng,  
 Siu Hung Chien,  D. M. Chipman,  D. L. Crittenden,  H. Dachsel,  
 R. J. Doerksen,  A. D. Dutoi,  L. Fusti-Molnar,  W. A. Goddard III,  
 A. Golubeva-Zadorozhnaya,  S. R. Gwaltney,  G. Hawkins,  A. Heyden,  
 S. Hirata,  G. Kedziora,  F. J. Keil,  C. Kelley,  Jihan Kim,  R. A. King,  
 R. Z. Khaliullin,  P. P. Korambath,  W. Kurlancheek,  A. M. Lee,  M. S. Lee,  
 S. V. Levchenko,  Ching Yeh Lin,  D. Liotard,  R. C. Lochan,  I. Lotan,  
 P. E. Maslen,  N. Nair,  D. P. O'Neill,  D. Neuhauser,  E. Neuscamman,  
 C. M. Oana,  R. Olson,  B. Peters,  R. Peverati,  P. A. Pieniazek,  
 Y. M. Rhee,  J. Ritchie,  M. A. Rohrdanz,  E. Rosta,  N. J. Russ,  
 H. F. Schaefer III,  N. E. Schultz,  N. Shenvi,  A. C. Simmonett,  A. Sodt,  
 D. Stuck,  K. S. Thanthiriwatte,  V. Vanovschi,  Tao Wang,  A. Warshel,  
 C. F. Williams,  Q. Wu,  X. Xu,  W. Zhang

 Please cite Q-Chem as follows:
 Y. Shao et al., Mol. Phys. 113, 184-215 (2015)
 DOI: 10.1080/00268976.2014.952696

 Q-Chem 5.2.2 for Intel X86 EM64T Linux

 Parts of Q-Chem use Armadillo 9.800.1 (Horizon Scraper).
 http://arma.sourceforge.net/

 Q-Chem begins on Sun Apr 12 06:29:05 2020  

Host: cn0821
0

     Scratch files written to /tmp/ypli/6721342.srvc1/qchem178175//
Warning:  Did not find "$end" marker in "$molecule" section

Checking the input file for inconsistencies... 	...done.

--------------------------------------------------------------
User input:
--------------------------------------------------------------
$rem
   JOBTYPE  sp
   EXCHANGE   omegaB97X-D
   BASIS   6-311+G(2df,2pd)
   max_scf_cycles   250
   geom_opt_max_cycles   1500
   basis2 6-31G*
   scf_algorithm rca_diis
   SYM_IGNORE  TRUE
   print_input   true
   geom_opt_dmax   80
   pop_mulliken false
   XC_GRID 000075000302
$end

$molecule
0 1
C       1.2295270917     -0.0513346275     0.3738459675
C       0.0000001002     0.0443188781     -0.6603433366
H       1.5147713758     -0.9107576691     0.9744581564
H       1.4393700609     0.8741394489     0.9126123121
H       1.9440959098     0.0552400682     -0.4519775412
C       -1.2295272434     -0.0513346266     0.3738461224
H       -0.0000004868     -0.8699129974     -1.2638322152
H       0.0000002285     0.8910199469     -1.3526575363
H       -1.5147712674     -0.9107577599     0.9744582285
H       -1.9440954557     0.0552406932     -0.4519777439
H       -1.4393703742     0.8741393112     0.9126126053
--------------------------------------------------------------
 ----------------------------------------------------------------
             Standard Nuclear Orientation (Angstroms)
    I     Atom           X                Y                Z
 ----------------------------------------------------------------
    1      C       1.2295270917    -0.0513346275     0.3738459675
    2      C       0.0000001002     0.0443188781    -0.6603433366
    3      H       1.5147713758    -0.9107576691     0.9744581564
    4      H       1.4393700609     0.8741394489     0.9126123121
    5      H       1.9440959098     0.0552400682    -0.4519775412
    6      C      -1.2295272434    -0.0513346266     0.3738461224
    7      H      -0.0000004868    -0.8699129974    -1.2638322152
    8      H       0.0000002285     0.8910199469    -1.3526575363
    9      H      -1.5147712674    -0.9107577599     0.9744582285
   10      H      -1.9440954557     0.0552406932    -0.4519777439
   11      H      -1.4393703742     0.8741393112     0.9126126053
 ----------------------------------------------------------------
 Nuclear Repulsion Energy =          81.07523379 hartrees
 There are       13 alpha and       13 beta electrons
 Requested basis set is 6-311+G(2df,2pd)
 There are 72 shells and 214 basis functions

 Total QAlloc Memory Limit   2000 MB
 Mega-Array Size       188 MB
 MEM_STATIC part       192 MB

                       Distance Matrix (Angstroms)
             C (  1)   C (  2)   H (  3)   H (  4)   H (  5)   C (  6)
   C (  2)  1.609482
   H (  3)  1.086604  2.424722
   H (  4)  1.091240  2.287920  1.787559
   H (  5)  1.097247  1.955261  1.775441  1.669566
   C (  6)  2.459054  1.609483  2.937774  2.875723  3.281041
   H (  7)  2.205402  1.095454  2.702988  3.138537  2.300984  2.205402
   H (  8)  2.319608  1.093710  3.310046  2.683937  2.299839  2.319609
   H (  9)  2.937774  2.424723  3.029543  3.452048  3.864147  1.086604
   H ( 10)  3.281040  1.955260  3.864147  3.739056  3.888191  1.097247
   H ( 11)  2.875723  2.287920  3.452048  2.878740  3.739057  1.091240
             H (  7)   H (  8)   H (  9)   H ( 10)
   H (  8)  1.763172
   H (  9)  2.702988  3.310046
   H ( 10)  2.300983  2.299839  1.775441
   H ( 11)  3.138537  2.683938  1.787559  1.669566
 
 A cutoff of  1.0D-09 yielded   2511 shell pairs
 There are     22471 function pairs (     27664 Cartesian)
 Smallest overlap matrix eigenvalue = 1.13E-04

 Scale SEOQF with 1.000000e-01/1.000000e-01/1.000000e-01

 Standard Electronic Orientation quadrupole field applied
 Nucleus-field energy     =     0.0000000003 hartrees
 Requested basis set is 6-31G(d)
 There are 28 shells and 58 basis functions
 A cutoff of  1.0D-09 yielded    403 shell pairs
 There are      1774 function pairs (      1969 Cartesian)
 Smallest overlap matrix eigenvalue = 7.28E-03
 Guess from superposition of atomic densities
 Warning:  Energy on first SCF cycle will be non-variational
 SAD guess density has 26.000000 electrons
 Long-range K will be added via erf
 Coulomb attenuation parameter = 0.2 bohr**(-1)
 A restricted hybrid HF-DFT SCF calculation will be
 performed using Relaxed Constraint Minimization + Pulay DIIS
 Exchange:     0.2220 Hartree-Fock + 1.0000 wB97X-D + LR-HF
 Correlation:  1.0000 wB97X-D
 Using Euler-Maclaurin-Lebedev (75,302) quadrature formula
 Dispersion:   Grimme D
 SCF converges when DIIS error is below 1.0E-04
 using 3 threads for integral computing
 -------------------------------------------------------
 OpenMP Integral computing Module                
 Release: version 1.0, May 2013, Q-Chem Inc. Pittsburgh 
 -------------------------------------------------------
 using 3 threads for integral computing
 -------------------------------------------------------
 OpenMP Integral computing Module                
 Release: version 1.0, May 2013, Q-Chem Inc. Pittsburgh 
 -------------------------------------------------------
 ---------------------------------------
  Cycle       Energy         DIIS Error
 ---------------------------------------
    1    -119.4430191040      9.48E-02
    2    -119.0059133493      8.90E-03
    3    -119.0260415281      2.36E-03
    4    -119.0402007932      1.65E-03
    5    -119.0408424045      2.08E-04 Done RCA. Switching to DIIS
    6    -119.0413697392      1.62E-04
    7    -119.0413809937      4.89E-06 Convergence criterion met
 ---------------------------------------
 SCF time:  CPU 33.07 s  wall 11.42 s
 SCF   energy in the small basis set = -119.04138099
 Total energy in the small basis set = -119.04138099
 ----------------------------------------------------
  Cycle       Energy    
 ----------------------------------------------------
    1     -16.4786686994     -1.65E+01
 Long-range K will be added via erf
 Coulomb attenuation parameter = 0.2 bohr**(-1)
 A restricted hybrid HF-DFT SCF calculation will be
 performed using Relaxed Constraint Minimization + Pulay DIIS
 Exchange:     0.2220 Hartree-Fock + 1.0000 wB97X-D + LR-HF
 Correlation:  1.0000 wB97X-D
 Using Euler-Maclaurin-Lebedev (75,302) quadrature formula
 Dispersion:   Grimme D
 SCF converges when DIIS error is below 1.0E-05
 Basis2 calculation detected. Using small basis as guess for larger.
 SCFMinFind is unable to tell whether the solution found is close.
 Resetting ReadMinima to 0 and attempting to follow guess.
 SCFMinFind following SCF Guess.
 using 3 threads for integral computing
 -------------------------------------------------------
 OpenMP Integral computing Module                
 Release: version 1.0, May 2013, Q-Chem Inc. Pittsburgh 
 -------------------------------------------------------
 using 3 threads for integral computing
 -------------------------------------------------------
 OpenMP Integral computing Module                
 Release: version 1.0, May 2013, Q-Chem Inc. Pittsburgh 
 -------------------------------------------------------
 ---------------------------------------
  Cycle       Energy         DIIS Error
 ---------------------------------------
    1    -119.0613688355      4.22E-03
    2    -119.0835207109      6.39E-04 Done RCA. Switching to DIIS
    3    -119.0844167947      4.60E-04
    4    -119.0855843253      4.86E-05
    5    -119.0856011147      1.14E-05
    6    -119.0856020529      4.68E-06 Convergence criterion met
 ---------------------------------------
 SCF time:  CPU 97.34 s  wall 32.90 s

 Q-Chem warning in module 0, line  198:

 OriOrb: Failure to resolve orbital degeneracies.


 Q-Chem warning in module 0, line  198:

 OriOrb: Failure to resolve orbital degeneracies.

 SCF   energy in the final basis set = -119.08560205
 Total energy in the final basis set = -119.08560205
 
 --------------------------------------------------------------
 
                    Orbital Energies (a.u.)
 --------------------------------------------------------------
 
 Alpha MOs
 -- Occupied --
-10.2968 -10.2652 -10.2652  -0.8671  -0.7710  -0.6870  -0.5372  -0.4985
 -0.4934  -0.4621  -0.4560  -0.4184  -0.3400
 -- Virtual --
  0.0666   0.0842   0.0860   0.1016   0.1253   0.1292   0.1326   0.1332
  0.1451   0.1685   0.1695   0.1907   0.2158   0.2376   0.2397   0.2627
  0.2810   0.2834   0.3048   0.3086   0.3356   0.3425   0.4429   0.4616
  0.4764   0.5075   0.5190   0.5302   0.5507   0.5611   0.5887   0.5890
  0.5956   0.6026   0.6445   0.6569   0.6688   0.6880   0.7046   0.7177
  0.7325   0.7477   0.7908   0.8081   0.8666   0.8966   0.9426   0.9499
  0.9944   1.0235   1.0522   1.1288   1.1341   1.1735   1.1868   1.2082
  1.2111   1.2238   1.2455   1.2579   1.2712   1.3029   1.3475   1.3561
  1.3855   1.4317   1.4340   1.4568   1.4590   1.4834   1.4930   1.4987
  1.5173   1.5399   1.5840   1.6072   1.6202   1.6393   1.6862   1.6938
  1.7095   2.3614   2.4148   2.4608   2.5022   2.5386   2.5391   2.5949
  2.6390   2.6546   2.7382   2.7657   2.7976   2.8471   2.8612   2.9291
  2.9332   2.9337   2.9959   3.0402   3.0493   3.0839   3.0961   3.1032
  3.1098   3.1691   3.1705   3.2028   3.2122   3.2400   3.2553   3.2831
  3.3274   3.3311   3.3558   3.3797   3.3847   3.3995   3.4146   3.4182
  3.4375   3.4827   3.4895   3.5442   3.5542   3.5809   3.5899   3.6029
  3.6288   3.6339   3.6451   3.6744   3.7272   3.7442   3.7819   3.8191
  3.8316   3.8427   3.8561   3.8918   3.9548   3.9700   4.0124   4.0470
  4.0726   4.0791   4.1087   4.1101   4.1260   4.1269   4.1874   4.2239
  4.2325   4.2403   4.2640   4.2875   4.2894   4.3809   4.4107   4.4441
  4.4972   4.5327   4.5662   4.6205   4.6901   4.7497   4.7670   4.8352
  4.8742   4.9085   4.9202   4.9620   4.9984   5.0116   5.0620   5.1464
  5.1768   5.1825   5.2024   5.2296   5.2882   5.3117   5.3186   5.3774
  5.4119   5.4228   5.4372   5.4547   5.4766   5.5301   5.5323   5.6216
  5.8328   6.3699   6.4004   6.4241   6.4291   6.4591  25.0655  25.3696
 25.4175
 --------------------------------------------------------------
 
 -----------------------------------------------------------------
                    Cartesian Multipole Moments
 -----------------------------------------------------------------
    Charge (ESU x 10^10)
                 0.0000
    Dipole Moment (Debye)
         X       0.0000      Y       0.0410      Z      -0.3370
       Tot       0.3395
    Quadrupole Moments (Debye-Ang)
        XX     -23.6679     XY      -0.0000     YY     -21.1003
        XZ       0.0000     YZ      -0.6540     ZZ     -20.9401
    Octopole Moments (Debye-Ang^2)
       XXX       0.0000    XXY       0.0502    XYY       0.0000
       YYY       0.7081    XXZ       0.3650    XYZ       0.0000
       YYZ      -0.2336    XZZ      -0.0000    YZZ       0.2200
       ZZZ      -3.4418
    Hexadecapole Moments (Debye-Ang^3)
      XXXX    -218.5133   XXXY      -0.0000   XXYY     -39.7858
      XYYY       0.0000   YYYY     -43.8836   XXXZ       0.0000
      XXYZ      -1.1021   XYYZ       0.0000   YYYZ       1.0270
      XXZZ     -44.1410   XYZZ       0.0000   YYZZ     -17.9042
      XZZZ       0.0000   YZZZ      -0.1785   ZZZZ     -80.2398
 -----------------------------------------------------------------
Archival summary:
1\1\cn0821\SP\ProcedureUnspecified\BasisUnspecified\38\r0852400\SunApr1206:29:552020SunApr1206:29:552020\0\\#,ProcedureUnspecified,BasisUnspecified,\\0,1\C\H,1,1.09371\H,1,1.09545,2,107.299\C,1,1.60948,2,116.92,3,121.045,0\H,4,1.0866,1,127.065,2,-165.655,0\H,4,1.09124,1,114.44,2,49.1118,0\H,4,1.09725,1,90.4649,2,-51.4803,0\C,1,1.60948,2,116.92,3,-121.044,0\H,8,1.0866,1,127.065,2,165.655,0\H,8,1.09124,1,114.44,2,-49.1118,0\H,8,1.09725,1,90.4649,2,51.4803,0\\\@

 Total job time:  49.55s(wall), 138.56s(cpu) 
 Sun Apr 12 06:29:55 2020

        *************************************************************
        *                                                           *
        *  Thank you very much for using Q-Chem.  Have a nice day.  *
        *                                                           *
        *************************************************************


