                  Welcome to Q-Chem
     A Quantum Leap Into The Future Of Chemistry


 Q-Chem 5.2 (devel), Q-Chem, Inc., Pleasanton, CA (2019)

 Yihan Shao,  Zhengting Gan,  E. Epifanovsky,  A. T. B. Gilbert,  M. Wormit,  
 J. Kussmann,  A. W. Lange,  A. Behn,  Jia Deng,  Xintian Feng,  D. Ghosh,  
 M. Goldey,  P. R. Horn,  L. D. Jacobson,  I. Kaliman,  T. Kus,  A. Landau,  
 Jie Liu,  E. I. Proynov,  R. M. Richard,  R. P. Steele,  E. J. Sundstrom,  
 H. L. Woodcock III,  P. M. Zimmerman,  D. Zuev,  B. Alam,  B. Albrecht,  
 E. Alguire,  S. A. Baeppler,  D. Barton,  Z. Benda,  Y. A. Bernard,  
 E. J. Berquist,  K. B. Bravaya,  H. Burton,  K. Carter-Fenk,  D. Casanova,  
 Chun-Min Chang,  Yunqing Chen,  A. Chien,  K. D. Closser,  M. P. Coons,  
 S. Coriani,  S. Dasgupta,  A. L. Dempwolff,  M. Diedenhofen,  Hainam Do,  
 R. G. Edgar,  Po-Tung Fang,  S. Faraji,  S. Fatehi,  Qingguo Feng,  
 J. Fosso-Tande,  J. Gayvert,  Qinghui Ge,  A. Ghysels,  G. Gidofalvi,  
 J. Gomes,  J. Gonthier,  A. Gunina,  D. Hait,  M. W. D. Hanson-Heine,  
 P. H. P. Harbach,  A. W. Hauser,  M. F. Herbst,  J. E. Herr,  
 E. G. Hohenstein,  Z. C. Holden,  Kerwin Hui,  B. C. Huynh,  T.-C. Jagau,  
 Hyunjun Ji,  B. Kaduk,  K. Khistyaev,  Jaehoon Kim,  P. Klunzinger,  K. Koh,  
 D. Kosenkov,  L. Koulias,  T. Kowalczyk,  C. M. Krauter,  A. Kunitsa,  
 Ka Un Lao,  A. Laurent,  K. V. Lawler,  Joonho Lee,  D. Lefrancois,  
 S. Lehtola,  D. S. Levine,  Yi-Pei Li,  You-Sheng Lin,  Fenglai Liu,  
 Kuan-Yu Liu,  E. Livshits,  M. Loipersberger,  A. Luenser,  P. Manohar,  
 E. Mansoor,  S. F. Manzer,  Shan-Ping Mao,  Yuezhi Mao,  N. Mardirossian,  
 A. V. Marenich,  T. Markovich,  L. A. Martinez-Martinez,  S. A. Maurer,  
 N. J. Mayhall,  S. C. McKenzie,  J.-M. Mewes,  P. Morgante,  A. F. Morrison,  
 J. W. Mullinax,  K. Nanda,  T. S. Nguyen-Beck,  R. Olivares-Amaya,  
 J. A. Parkhill,  S. K. Paul,  Zheng Pei,  T. M. Perrine,  F. Plasser,  
 P. Pokhilko,  S. Prager,  A. Prociuk,  E. Ramos,  B. Rana,  D. R. Rehn,  
 F. Rob,  M. Scheurer,  M. Schneider,  N. Sergueev,  S. M. Sharada,  
 S. Sharma,  D. W. Small,  T. Stauch,  C. J. Stein,  T. Stein,  Yu-Chuan Su,  
 S. P. Veccham,  A. J. W. Thom,  A. Tkatchenko,  T. Tsuchimochi,  
 N. M. Tubman,  L. Vogt,  M. L. Vidal,  O. Vydrov,  M. A. Watson,  J. Wenzel,  
 M. de Wergifosse,  T. A. Wesolowski,  A. White,  J. Witte,  A. Yamada,  
 Jun Yang,  K. Yao,  S. Yeganeh,  S. R. Yost,  Zhi-Qiang You,  A. Zech,  
 Igor Ying Zhang,  Xing Zhang,  Yan Zhao,  Ying Zhu,  B. R. Brooks,  
 G. K. L. Chan,  C. J. Cramer,  M. S. Gordon,  W. J. Hehre,  A. Klamt,  
 M. W. Schmidt,  C. D. Sherrill,  D. G. Truhlar,  A. Aspuru-Guzik,  R. Baer,  
 A. T. Bell,  N. A. Besley,  Jeng-Da Chai,  A. E. DePrince, III,  
 R. A. DiStasio Jr.,  A. Dreuw,  B. D. Dunietz,  T. R. Furlani,  
 Chao-Ping Hsu,  Yousung Jung,  Jing Kong,  D. S. Lambrecht,  WanZhen Liang,  
 C. Ochsenfeld,  V. A. Rassolov,  L. V. Slipchenko,  J. E. Subotnik,  
 T. Van Voorhis,  J. M. Herbert,  A. I. Krylov,  P. M. W. Gill,  M. Head-Gordon

 Contributors to earlier versions of Q-Chem not listed above: 
 R. D. Adamson,  B. Austin,  J. Baker,  G. J. O. Beran,  K. Brandhorst,  
 S. T. Brown,  E. F. C. Byrd,  A. K. Chakraborty,  C.-L. Cheng,  
 Siu Hung Chien,  D. M. Chipman,  D. L. Crittenden,  H. Dachsel,  
 R. J. Doerksen,  A. D. Dutoi,  L. Fusti-Molnar,  W. A. Goddard III,  
 A. Golubeva-Zadorozhnaya,  S. R. Gwaltney,  G. Hawkins,  A. Heyden,  
 S. Hirata,  G. Kedziora,  F. J. Keil,  C. Kelley,  Jihan Kim,  R. A. King,  
 R. Z. Khaliullin,  P. P. Korambath,  W. Kurlancheek,  A. M. Lee,  M. S. Lee,  
 S. V. Levchenko,  Ching Yeh Lin,  D. Liotard,  R. C. Lochan,  I. Lotan,  
 P. E. Maslen,  N. Nair,  D. P. O'Neill,  D. Neuhauser,  E. Neuscamman,  
 C. M. Oana,  R. Olson,  B. Peters,  R. Peverati,  P. A. Pieniazek,  
 Y. M. Rhee,  J. Ritchie,  M. A. Rohrdanz,  E. Rosta,  N. J. Russ,  
 H. F. Schaefer III,  N. E. Schultz,  N. Shenvi,  A. C. Simmonett,  A. Sodt,  
 D. Stuck,  K. S. Thanthiriwatte,  V. Vanovschi,  Tao Wang,  A. Warshel,  
 C. F. Williams,  Q. Wu,  X. Xu,  W. Zhang

 Please cite Q-Chem as follows:
 Y. Shao et al., Mol. Phys. 113, 184-215 (2015)
 DOI: 10.1080/00268976.2014.952696

 Q-Chem 5.2.2 for Intel X86 EM64T Linux

 Parts of Q-Chem use Armadillo 9.800.1 (Horizon Scraper).
 http://arma.sourceforge.net/

 Q-Chem begins on Sun Apr 12 06:33:13 2020  

Host: cn0821
0

     Scratch files written to /tmp/ypli/6721342.srvc1/qchem178815//
Warning:  Did not find "$end" marker in "$molecule" section

Checking the input file for inconsistencies... 	...done.

--------------------------------------------------------------
User input:
--------------------------------------------------------------
$rem
   JOBTYPE  sp
   EXCHANGE   omegaB97X-D
   BASIS   6-311+G(2df,2pd)
   max_scf_cycles   250
   geom_opt_max_cycles   1500
   basis2 6-31G*
   scf_algorithm rca_diis
   SYM_IGNORE  TRUE
   print_input   true
   geom_opt_dmax   80
   pop_mulliken false
   XC_GRID 000075000302
$end

$molecule
0 1
C       1.2752622431     0.0338050625     0.1424506730
C       -0.0000001284     -0.0369344289     -0.5195974735
H       1.0331654368     -0.8018786931     0.8108225709
H       1.1136100693     0.8362110542     0.8660241843
H       2.2988779078     -0.0398609368     -0.2056446785
C       -1.2752621641     0.0338051431     0.1424505102
H       0.0000006007     -0.8740927656     -1.2172198669
H       -0.0000003822     0.8544739285     -1.1494430205
H       -1.0331656934     -0.8018786790     0.8108224668
H       -2.2988781217     -0.0398602360     -0.2056443127
H       -1.1136098286     0.8362112171     0.8660239656
--------------------------------------------------------------
 ----------------------------------------------------------------
             Standard Nuclear Orientation (Angstroms)
    I     Atom           X                Y                Z
 ----------------------------------------------------------------
    1      C       1.2752622431     0.0338050625     0.1424506730
    2      C      -0.0000001284    -0.0369344289    -0.5195974735
    3      H       1.0331654368    -0.8018786931     0.8108225709
    4      H       1.1136100693     0.8362110542     0.8660241843
    5      H       2.2988779078    -0.0398609368    -0.2056446785
    6      C      -1.2752621641     0.0338051431     0.1424505102
    7      H       0.0000006007    -0.8740927656    -1.2172198669
    8      H      -0.0000003822     0.8544739285    -1.1494430205
    9      H      -1.0331656934    -0.8018786790     0.8108224668
   10      H      -2.2988781217    -0.0398602360    -0.2056443127
   11      H      -1.1136098286     0.8362112171     0.8660239656
 ----------------------------------------------------------------
 Nuclear Repulsion Energy =          85.72080505 hartrees
 There are       13 alpha and       13 beta electrons
 Requested basis set is 6-311+G(2df,2pd)
 There are 72 shells and 214 basis functions

 Total QAlloc Memory Limit   2000 MB
 Mega-Array Size       188 MB
 MEM_STATIC part       192 MB

                       Distance Matrix (Angstroms)
             C (  1)   C (  2)   H (  3)   H (  4)   H (  5)   C (  6)
   C (  2)  1.438613
   H (  3)  1.097132  1.850024
   H (  4)  1.092495  1.980520  1.640993
   H (  5)  1.083691  2.320219  1.793294  1.822316
   C (  6)  2.550524  1.438612  2.544391  2.621855  3.591807
   H (  7)  2.073469  1.089730  2.277191  2.916363  2.646519  2.073470
   H (  8)  1.992180  1.091473  2.766510  2.302731  2.641104  1.992179
   H (  9)  2.544391  1.850024  2.066331  2.700932  3.566005  1.097132
   H ( 10)  3.591807  2.320219  3.566005  3.682533  4.597756  1.083691
   H ( 11)  2.621855  1.980519  2.700931  2.227220  3.682533  1.092495
             H (  7)   H (  8)   H (  9)   H ( 10)
   H (  8)  1.729895
   H (  9)  2.277192  2.766510
   H ( 10)  2.646521  2.641104  1.793294
   H ( 11)  2.916363  2.302730  1.640993  1.822316
 
 A cutoff of  1.0D-09 yielded   2548 shell pairs
 There are     22606 function pairs (     27781 Cartesian)
 Smallest overlap matrix eigenvalue = 7.55E-05

 Scale SEOQF with 1.000000e-01/1.000000e-01/1.000000e-01

 Standard Electronic Orientation quadrupole field applied
 Nucleus-field energy     =     0.0000000007 hartrees
 Requested basis set is 6-31G(d)
 There are 28 shells and 58 basis functions
 A cutoff of  1.0D-09 yielded    402 shell pairs
 There are      1773 function pairs (      1968 Cartesian)
 Smallest overlap matrix eigenvalue = 4.70E-03
 Guess from superposition of atomic densities
 Warning:  Energy on first SCF cycle will be non-variational
 SAD guess density has 26.000000 electrons
 Long-range K will be added via erf
 Coulomb attenuation parameter = 0.2 bohr**(-1)
 A restricted hybrid HF-DFT SCF calculation will be
 performed using Relaxed Constraint Minimization + Pulay DIIS
 Exchange:     0.2220 Hartree-Fock + 1.0000 wB97X-D + LR-HF
 Correlation:  1.0000 wB97X-D
 Using Euler-Maclaurin-Lebedev (75,302) quadrature formula
 Dispersion:   Grimme D
 SCF converges when DIIS error is below 1.0E-04
 using 3 threads for integral computing
 -------------------------------------------------------
 OpenMP Integral computing Module                
 Release: version 1.0, May 2013, Q-Chem Inc. Pittsburgh 
 -------------------------------------------------------
 using 3 threads for integral computing
 -------------------------------------------------------
 OpenMP Integral computing Module                
 Release: version 1.0, May 2013, Q-Chem Inc. Pittsburgh 
 -------------------------------------------------------
 ---------------------------------------
  Cycle       Energy         DIIS Error
 ---------------------------------------
    1    -119.9524210335      1.11E-01
    2    -118.9859540874      9.74E-03
    3    -119.0105806115      2.65E-03
    4    -119.0271366017      1.85E-03
    5    -119.0279590680      2.73E-04 Done RCA. Switching to DIIS
    6    -119.0285861104      2.08E-04
    7    -119.0286044770      4.97E-06 Convergence criterion met
 ---------------------------------------
 SCF time:  CPU 32.67 s  wall 11.25 s
 SCF   energy in the small basis set = -119.02860448
 Total energy in the small basis set = -119.02860448
 ----------------------------------------------------
  Cycle       Energy    
 ----------------------------------------------------
    1     -16.6144517569     -1.66E+01
 Long-range K will be added via erf
 Coulomb attenuation parameter = 0.2 bohr**(-1)
 A restricted hybrid HF-DFT SCF calculation will be
 performed using Relaxed Constraint Minimization + Pulay DIIS
 Exchange:     0.2220 Hartree-Fock + 1.0000 wB97X-D + LR-HF
 Correlation:  1.0000 wB97X-D
 Using Euler-Maclaurin-Lebedev (75,302) quadrature formula
 Dispersion:   Grimme D
 SCF converges when DIIS error is below 1.0E-05
 Basis2 calculation detected. Using small basis as guess for larger.
 SCFMinFind is unable to tell whether the solution found is close.
 Resetting ReadMinima to 0 and attempting to follow guess.
 SCFMinFind following SCF Guess.
 using 3 threads for integral computing
 -------------------------------------------------------
 OpenMP Integral computing Module                
 Release: version 1.0, May 2013, Q-Chem Inc. Pittsburgh 
 -------------------------------------------------------
 using 3 threads for integral computing
 -------------------------------------------------------
 OpenMP Integral computing Module                
 Release: version 1.0, May 2013, Q-Chem Inc. Pittsburgh 
 -------------------------------------------------------
 ---------------------------------------
  Cycle       Energy         DIIS Error
 ---------------------------------------
    1    -119.0508514879      4.22E-03
    2    -119.0731681638      6.44E-04 Done RCA. Switching to DIIS
    3    -119.0740822968      4.68E-04
    4    -119.0752699749      4.91E-05
    5    -119.0752873910      1.47E-05
    6    -119.0752887895      4.30E-06 Convergence criterion met
 ---------------------------------------
 SCF time:  CPU 100.90 s  wall 34.06 s
 SCF   energy in the final basis set = -119.07528879
 Total energy in the final basis set = -119.07528879
 
 --------------------------------------------------------------
 
                    Orbital Energies (a.u.)
 --------------------------------------------------------------
 
 Alpha MOs
 -- Occupied --
-10.2666 -10.2666 -10.2656  -0.9196  -0.7949  -0.6745  -0.5658  -0.5623
 -0.4921  -0.4755  -0.4421  -0.3955  -0.3588
 -- Virtual --
  0.0704   0.0831   0.0921   0.0964   0.1131   0.1286   0.1339   0.1396
  0.1513   0.1703   0.1762   0.1979   0.1991   0.2223   0.2517   0.2569
  0.2692   0.2847   0.3119   0.3364   0.3387   0.3865   0.4429   0.4591
  0.4754   0.4957   0.5032   0.5162   0.5631   0.5764   0.5816   0.5918
  0.6079   0.6271   0.6450   0.6635   0.6668   0.6993   0.7169   0.7189
  0.7280   0.7975   0.8106   0.8439   0.9007   0.9012   0.9437   0.9693
  1.0016   1.0230   1.0612   1.0617   1.1397   1.1699   1.2379   1.2507
  1.2517   1.2721   1.2966   1.3142   1.3255   1.3305   1.3640   1.3706
  1.3855   1.4305   1.4536   1.4599   1.4632   1.4780   1.4816   1.5016
  1.5267   1.5663   1.5875   1.6074   1.6363   1.6734   1.6890   1.7281
  1.8754   2.4216   2.4609   2.5242   2.5416   2.5691   2.5875   2.6019
  2.6754   2.7372   2.7731   2.8249   2.8434   2.8719   2.9079   2.9707
  2.9980   2.9992   3.0400   3.0465   3.0530   3.0780   3.0984   3.1608
  3.1638   3.1896   3.2151   3.2272   3.2384   3.2432   3.2864   3.3309
  3.3439   3.3643   3.3863   3.3986   3.4009   3.4124   3.4461   3.4661
  3.4703   3.5135   3.5188   3.5304   3.5720   3.5774   3.5894   3.5984
  3.6253   3.6614   3.6705   3.7065   3.7300   3.7607   3.7608   3.9005
  3.9281   3.9360   3.9454   4.0158   4.0387   4.0513   4.0886   4.1135
  4.1345   4.1800   4.1824   4.2173   4.2406   4.2562   4.2841   4.3092
  4.3240   4.3963   4.3976   4.4494   4.4592   4.5126   4.5255   4.5750
  4.5853   4.6033   4.7004   4.7079   4.7616   4.7644   4.7993   4.8080
  4.9401   4.9837   5.0039   5.0553   5.0763   5.0984   5.1554   5.1669
  5.2119   5.2222   5.2708   5.2841   5.3619   5.3655   5.3912   5.4389
  5.4601   5.5416   5.5676   5.6179   5.7702   5.7707   5.9534   6.0912
  6.2147   6.3977   6.4361   6.4554   6.4772   6.5348  25.3470  25.4739
 25.5876
 --------------------------------------------------------------
 
 -----------------------------------------------------------------
                    Cartesian Multipole Moments
 -----------------------------------------------------------------
    Charge (ESU x 10^10)
                 0.0000
    Dipole Moment (Debye)
         X      -0.0000      Y      -0.0389      Z      -0.0222
       Tot       0.0447
    Quadrupole Moments (Debye-Ang)
        XX     -20.3924     XY      -0.0000     YY     -22.1533
        XZ      -0.0000     YZ       0.4992     ZZ     -23.1296
    Octopole Moments (Debye-Ang^2)
       XXX      -0.0000    XXY      -0.2303    XYY       0.0000
       YYY      -0.2836    XXZ      -2.1169    XYZ       0.0000
       YYZ       0.6253    XZZ       0.0000    YZZ      -0.0386
       ZZZ       1.9187
    Hexadecapole Moments (Debye-Ang^3)
      XXXX    -171.8789   XXXY      -0.0000   XXYY     -43.1763
      XYYY       0.0000   YYYY     -44.9281   XXXZ      -0.0000
      XXYZ       0.5771   XYYZ      -0.0000   YYYZ      -0.1984
      XXZZ     -45.7928   XYZZ       0.0000   YYZZ     -17.2662
      XZZZ      -0.0000   YZZZ       0.5912   ZZZZ     -67.0545
 -----------------------------------------------------------------
Archival summary:
1\1\cn0821\SP\ProcedureUnspecified\BasisUnspecified\38\r0852400\SunApr1206:34:032020SunApr1206:34:032020\0\\#,ProcedureUnspecified,BasisUnspecified,\\0,1\C\H,1,1.08973\H,1,1.09147,2,104.951\C,1,1.43861,2,109.414,3,109.967,0\H,4,1.08369,1,133.326,2,-44.9086,0\H,4,1.0925,1,102.107,2,174.906,0\H,4,1.09713,1,92.7106,2,77.0652,0\C,1,1.43861,2,109.414,3,-109.967,0\H,8,1.08369,1,133.326,2,44.9086,0\H,8,1.0925,1,102.107,2,-174.906,0\H,8,1.09713,1,92.7106,2,-77.0653,0\\\@

 Total job time:  49.74s(wall), 138.94s(cpu) 
 Sun Apr 12 06:34:03 2020

        *************************************************************
        *                                                           *
        *  Thank you very much for using Q-Chem.  Have a nice day.  *
        *                                                           *
        *************************************************************


