                  Welcome to Q-Chem
     A Quantum Leap Into The Future Of Chemistry


 Q-Chem 5.2 (devel), Q-Chem, Inc., Pleasanton, CA (2019)

 Yihan Shao,  Zhengting Gan,  E. Epifanovsky,  A. T. B. Gilbert,  M. Wormit,  
 J. Kussmann,  A. W. Lange,  A. Behn,  Jia Deng,  Xintian Feng,  D. Ghosh,  
 M. Goldey,  P. R. Horn,  L. D. Jacobson,  I. Kaliman,  T. Kus,  A. Landau,  
 Jie Liu,  E. I. Proynov,  R. M. Richard,  R. P. Steele,  E. J. Sundstrom,  
 H. L. Woodcock III,  P. M. Zimmerman,  D. Zuev,  B. Alam,  B. Albrecht,  
 E. Alguire,  S. A. Baeppler,  D. Barton,  Z. Benda,  Y. A. Bernard,  
 E. J. Berquist,  K. B. Bravaya,  H. Burton,  K. Carter-Fenk,  D. Casanova,  
 Chun-Min Chang,  Yunqing Chen,  A. Chien,  K. D. Closser,  M. P. Coons,  
 S. Coriani,  S. Dasgupta,  A. L. Dempwolff,  M. Diedenhofen,  Hainam Do,  
 R. G. Edgar,  Po-Tung Fang,  S. Faraji,  S. Fatehi,  Qingguo Feng,  
 J. Fosso-Tande,  J. Gayvert,  Qinghui Ge,  A. Ghysels,  G. Gidofalvi,  
 J. Gomes,  J. Gonthier,  A. Gunina,  D. Hait,  M. W. D. Hanson-Heine,  
 P. H. P. Harbach,  A. W. Hauser,  M. F. Herbst,  J. E. Herr,  
 E. G. Hohenstein,  Z. C. Holden,  Kerwin Hui,  B. C. Huynh,  T.-C. Jagau,  
 Hyunjun Ji,  B. Kaduk,  K. Khistyaev,  Jaehoon Kim,  P. Klunzinger,  K. Koh,  
 D. Kosenkov,  L. Koulias,  T. Kowalczyk,  C. M. Krauter,  A. Kunitsa,  
 Ka Un Lao,  A. Laurent,  K. V. Lawler,  Joonho Lee,  D. Lefrancois,  
 S. Lehtola,  D. S. Levine,  Yi-Pei Li,  You-Sheng Lin,  Fenglai Liu,  
 Kuan-Yu Liu,  E. Livshits,  M. Loipersberger,  A. Luenser,  P. Manohar,  
 E. Mansoor,  S. F. Manzer,  Shan-Ping Mao,  Yuezhi Mao,  N. Mardirossian,  
 A. V. Marenich,  T. Markovich,  L. A. Martinez-Martinez,  S. A. Maurer,  
 N. J. Mayhall,  S. C. McKenzie,  J.-M. Mewes,  P. Morgante,  A. F. Morrison,  
 J. W. Mullinax,  K. Nanda,  T. S. Nguyen-Beck,  R. Olivares-Amaya,  
 J. A. Parkhill,  S. K. Paul,  Zheng Pei,  T. M. Perrine,  F. Plasser,  
 P. Pokhilko,  S. Prager,  A. Prociuk,  E. Ramos,  B. Rana,  D. R. Rehn,  
 F. Rob,  M. Scheurer,  M. Schneider,  N. Sergueev,  S. M. Sharada,  
 S. Sharma,  D. W. Small,  T. Stauch,  C. J. Stein,  T. Stein,  Yu-Chuan Su,  
 S. P. Veccham,  A. J. W. Thom,  A. Tkatchenko,  T. Tsuchimochi,  
 N. M. Tubman,  L. Vogt,  M. L. Vidal,  O. Vydrov,  M. A. Watson,  J. Wenzel,  
 M. de Wergifosse,  T. A. Wesolowski,  A. White,  J. Witte,  A. Yamada,  
 Jun Yang,  K. Yao,  S. Yeganeh,  S. R. Yost,  Zhi-Qiang You,  A. Zech,  
 Igor Ying Zhang,  Xing Zhang,  Yan Zhao,  Ying Zhu,  B. R. Brooks,  
 G. K. L. Chan,  C. J. Cramer,  M. S. Gordon,  W. J. Hehre,  A. Klamt,  
 M. W. Schmidt,  C. D. Sherrill,  D. G. Truhlar,  A. Aspuru-Guzik,  R. Baer,  
 A. T. Bell,  N. A. Besley,  Jeng-Da Chai,  A. E. DePrince, III,  
 R. A. DiStasio Jr.,  A. Dreuw,  B. D. Dunietz,  T. R. Furlani,  
 Chao-Ping Hsu,  Yousung Jung,  Jing Kong,  D. S. Lambrecht,  WanZhen Liang,  
 C. Ochsenfeld,  V. A. Rassolov,  L. V. Slipchenko,  J. E. Subotnik,  
 T. Van Voorhis,  J. M. Herbert,  A. I. Krylov,  P. M. W. Gill,  M. Head-Gordon

 Contributors to earlier versions of Q-Chem not listed above: 
 R. D. Adamson,  B. Austin,  J. Baker,  G. J. O. Beran,  K. Brandhorst,  
 S. T. Brown,  E. F. C. Byrd,  A. K. Chakraborty,  C.-L. Cheng,  
 Siu Hung Chien,  D. M. Chipman,  D. L. Crittenden,  H. Dachsel,  
 R. J. Doerksen,  A. D. Dutoi,  L. Fusti-Molnar,  W. A. Goddard III,  
 A. Golubeva-Zadorozhnaya,  S. R. Gwaltney,  G. Hawkins,  A. Heyden,  
 S. Hirata,  G. Kedziora,  F. J. Keil,  C. Kelley,  Jihan Kim,  R. A. King,  
 R. Z. Khaliullin,  P. P. Korambath,  W. Kurlancheek,  A. M. Lee,  M. S. Lee,  
 S. V. Levchenko,  Ching Yeh Lin,  D. Liotard,  R. C. Lochan,  I. Lotan,  
 P. E. Maslen,  N. Nair,  D. P. O'Neill,  D. Neuhauser,  E. Neuscamman,  
 C. M. Oana,  R. Olson,  B. Peters,  R. Peverati,  P. A. Pieniazek,  
 Y. M. Rhee,  J. Ritchie,  M. A. Rohrdanz,  E. Rosta,  N. J. Russ,  
 H. F. Schaefer III,  N. E. Schultz,  N. Shenvi,  A. C. Simmonett,  A. Sodt,  
 D. Stuck,  K. S. Thanthiriwatte,  V. Vanovschi,  Tao Wang,  A. Warshel,  
 C. F. Williams,  Q. Wu,  X. Xu,  W. Zhang

 Please cite Q-Chem as follows:
 Y. Shao et al., Mol. Phys. 113, 184-215 (2015)
 DOI: 10.1080/00268976.2014.952696

 Q-Chem 5.2.2 for Intel X86 EM64T Linux

 Parts of Q-Chem use Armadillo 9.800.1 (Horizon Scraper).
 http://arma.sourceforge.net/

 Q-Chem begins on Sun Apr 12 06:53:30 2020  

Host: cn0821
0

     Scratch files written to /tmp/ypli/6721342.srvc1/qchem182294//
Warning:  Did not find "$end" marker in "$molecule" section

Checking the input file for inconsistencies... 	...done.

--------------------------------------------------------------
User input:
--------------------------------------------------------------
$rem
   JOBTYPE  sp
   EXCHANGE   omegaB97X-D
   BASIS   6-311+G(2df,2pd)
   max_scf_cycles   250
   geom_opt_max_cycles   1500
   basis2 6-31G*
   scf_algorithm rca_diis
   SYM_IGNORE  TRUE
   print_input   true
   geom_opt_dmax   80
   pop_mulliken false
   XC_GRID 000075000302
$end

$molecule
0 1
C       1.2340236176     0.0021173643     0.2104805853
C       -0.1015122828     0.0001250977     -0.5812522696
H       1.3185358455     -0.8514265945     0.8906902145
H       1.3101974856     0.8533318813     0.8943023588
H       2.1659200384     -0.0033718747     -0.3587764753
C       -1.3051313915     -0.0019051664     0.3063658646
H       0.0691840855     -0.8601148778     -1.2328706670
H       0.0782886697     0.8588627295     -1.2324034606
H       -1.3028471675     -0.9081141541     0.9103376397
H       -2.1556872242     0.0042432191     -0.3735251719
H       -1.3109717368     0.9062530416     0.9076964005
--------------------------------------------------------------
 ----------------------------------------------------------------
             Standard Nuclear Orientation (Angstroms)
    I     Atom           X                Y                Z
 ----------------------------------------------------------------
    1      C       1.2340236176     0.0021173643     0.2104805853
    2      C      -0.1015122828     0.0001250977    -0.5812522696
    3      H       1.3185358455    -0.8514265945     0.8906902145
    4      H       1.3101974856     0.8533318813     0.8943023588
    5      H       2.1659200384    -0.0033718747    -0.3587764753
    6      C      -1.3051313915    -0.0019051664     0.3063658646
    7      H       0.0691840855    -0.8601148778    -1.2328706670
    8      H       0.0782886697     0.8588627295    -1.2324034606
    9      H      -1.3028471675    -0.9081141541     0.9103376397
   10      H      -2.1556872242     0.0042432191    -0.3735251719
   11      H      -1.3109717368     0.9062530416     0.9076964005
 ----------------------------------------------------------------
 Nuclear Repulsion Energy =          82.78870790 hartrees
 There are       13 alpha and       13 beta electrons
 Requested basis set is 6-311+G(2df,2pd)
 There are 72 shells and 214 basis functions

 Total QAlloc Memory Limit   2000 MB
 Mega-Array Size       188 MB
 MEM_STATIC part       192 MB

                       Distance Matrix (Angstroms)
             C (  1)   C (  2)   H (  3)   H (  4)   H (  5)   C (  6)
   C (  2)  1.552579
   H (  3)  1.094698  2.215466
   H (  4)  1.094523  2.213176  1.704783
   H (  5)  1.092023  2.278323  1.731596  1.742529
   C (  6)  2.540968  1.495516  2.818998  2.813724  3.534206
   H (  7)  2.045375  1.092592  2.463832  3.000147  2.427828  2.234841
   H (  8)  2.037560  1.092592  2.995134  2.457744  2.421751  2.241112
   H (  9)  2.784607  2.119657  2.622069  3.151341  3.802835  1.089037
   H ( 10)  3.439652  2.064655  3.794817  3.786911  4.321639  1.088915
   H ( 11)  2.789368  2.121516  3.162916  2.621738  3.810531  1.089212
             H (  7)   H (  8)   H (  9)   H ( 10)
   H (  8)  1.719002
   H (  9)  2.545214  3.101787
   H ( 10)  2.536857  2.541396  1.791099
   H ( 11)  3.099502  2.551924  1.814387  1.780083
 
 A cutoff of  1.0D-09 yielded   2537 shell pairs
 There are     22597 function pairs (     27781 Cartesian)
 Smallest overlap matrix eigenvalue = 9.06E-05

 Scale SEOQF with 1.000000e-01/1.000000e-01/1.000000e-01

 Standard Electronic Orientation quadrupole field applied
 Nucleus-field energy     =     0.0000000006 hartrees
 Requested basis set is 6-31G(d)
 There are 28 shells and 58 basis functions
 A cutoff of  1.0D-09 yielded    402 shell pairs
 There are      1773 function pairs (      1968 Cartesian)
 Smallest overlap matrix eigenvalue = 6.82E-03
 Guess from superposition of atomic densities
 Warning:  Energy on first SCF cycle will be non-variational
 SAD guess density has 26.000000 electrons
 Long-range K will be added via erf
 Coulomb attenuation parameter = 0.2 bohr**(-1)
 A restricted hybrid HF-DFT SCF calculation will be
 performed using Relaxed Constraint Minimization + Pulay DIIS
 Exchange:     0.2220 Hartree-Fock + 1.0000 wB97X-D + LR-HF
 Correlation:  1.0000 wB97X-D
 Using Euler-Maclaurin-Lebedev (75,302) quadrature formula
 Dispersion:   Grimme D
 SCF converges when DIIS error is below 1.0E-04
 using 3 threads for integral computing
 -------------------------------------------------------
 OpenMP Integral computing Module                
 Release: version 1.0, May 2013, Q-Chem Inc. Pittsburgh 
 -------------------------------------------------------
 using 3 threads for integral computing
 -------------------------------------------------------
 OpenMP Integral computing Module                
 Release: version 1.0, May 2013, Q-Chem Inc. Pittsburgh 
 -------------------------------------------------------
 ---------------------------------------
  Cycle       Energy         DIIS Error
 ---------------------------------------
    1    -119.6319509118      1.01E-01
    2    -119.0540047444      9.01E-03
    3    -119.0751413543      2.49E-03
    4    -119.0890196411      1.70E-03
    5    -119.0897343448      2.72E-04 Done RCA. Switching to DIIS
    6    -119.0902577383      2.01E-04
    7    -119.0902752038      5.07E-06 Convergence criterion met
 ---------------------------------------
 SCF time:  CPU 33.04 s  wall 11.45 s
 SCF   energy in the small basis set = -119.09027520
 Total energy in the small basis set = -119.09027520
 ----------------------------------------------------
  Cycle       Energy    
 ----------------------------------------------------
    1     -16.5401134371     -1.65E+01
 Long-range K will be added via erf
 Coulomb attenuation parameter = 0.2 bohr**(-1)
 A restricted hybrid HF-DFT SCF calculation will be
 performed using Relaxed Constraint Minimization + Pulay DIIS
 Exchange:     0.2220 Hartree-Fock + 1.0000 wB97X-D + LR-HF
 Correlation:  1.0000 wB97X-D
 Using Euler-Maclaurin-Lebedev (75,302) quadrature formula
 Dispersion:   Grimme D
 SCF converges when DIIS error is below 1.0E-05
 Basis2 calculation detected. Using small basis as guess for larger.
 SCFMinFind is unable to tell whether the solution found is close.
 Resetting ReadMinima to 0 and attempting to follow guess.
 SCFMinFind following SCF Guess.
 using 3 threads for integral computing
 -------------------------------------------------------
 OpenMP Integral computing Module                
 Release: version 1.0, May 2013, Q-Chem Inc. Pittsburgh 
 -------------------------------------------------------
 using 3 threads for integral computing
 -------------------------------------------------------
 OpenMP Integral computing Module                
 Release: version 1.0, May 2013, Q-Chem Inc. Pittsburgh 
 -------------------------------------------------------
 ---------------------------------------
  Cycle       Energy         DIIS Error
 ---------------------------------------
    1    -119.1097802422      4.21E-03
    2    -119.1318343931      6.06E-04 Done RCA. Switching to DIIS
    3    -119.1326831106      4.26E-04
    4    -119.1336798615      4.54E-05
    5    -119.1336946617      9.89E-06 Convergence criterion met
 ---------------------------------------
 SCF time:  CPU 86.02 s  wall 29.08 s
 SCF   energy in the final basis set = -119.13369466
 Total energy in the final basis set = -119.13369466
 
 --------------------------------------------------------------
 
                    Orbital Energies (a.u.)
 --------------------------------------------------------------
 
 Alpha MOs
 -- Occupied --
-10.2748 -10.2692 -10.2622  -0.8835  -0.7793  -0.6790  -0.5466  -0.5245
 -0.4876  -0.4647  -0.4275  -0.4029  -0.4027
 -- Virtual --
  0.0687   0.0857   0.0908   0.0990   0.1246   0.1292   0.1328   0.1426
  0.1445   0.1660   0.1764   0.1914   0.2329   0.2376   0.2410   0.2695
  0.2803   0.2819   0.3023   0.3179   0.3293   0.3473   0.4576   0.4630
  0.4728   0.5119   0.5133   0.5221   0.5386   0.5727   0.5781   0.5906
  0.6242   0.6268   0.6397   0.6469   0.6528   0.6563   0.7111   0.7229
  0.7267   0.7670   0.8214   0.8657   0.8721   0.8745   0.8816   0.9597
  1.0040   1.0481   1.0514   1.1171   1.1433   1.1756   1.1854   1.2077
  1.2365   1.2389   1.2716   1.2892   1.2978   1.2986   1.3272   1.3741
  1.3849   1.3929   1.4092   1.4444   1.4545   1.4737   1.4827   1.5039
  1.5207   1.5912   1.5942   1.6208   1.6323   1.6353   1.6619   1.7009
  1.7266   2.3867   2.4606   2.4930   2.4968   2.5535   2.5791   2.6017
  2.6338   2.7136   2.8111   2.8227   2.8326   2.8928   2.8980   2.9271
  2.9647   2.9708   2.9967   2.9986   3.0277   3.0571   3.1009   3.1142
  3.1339   3.1367   3.1509   3.2091   3.2337   3.2566   3.2834   3.3087
  3.3205   3.3327   3.3356   3.3475   3.3864   3.3969   3.4190   3.4538
  3.4802   3.4945   3.4961   3.5361   3.5589   3.5790   3.5979   3.6120
  3.6335   3.6417   3.6712   3.6989   3.7412   3.8130   3.8219   3.8727
  3.8813   3.9076   3.9279   3.9375   3.9817   4.0069   4.0350   4.0399
  4.0726   4.0999   4.1070   4.1177   4.1613   4.1679   4.1715   4.1911
  4.2440   4.2631   4.2985   4.3802   4.4035   4.4076   4.4309   4.4624
  4.4635   4.5824   4.5859   4.6663   4.6762   4.7879   4.8145   4.8513
  4.9117   4.9431   4.9564   4.9577   5.0130   5.0431   5.0534   5.1113
  5.1274   5.2179   5.2261   5.2863   5.3157   5.3384   5.3410   5.3711
  5.4217   5.4853   5.4986   5.5416   5.5705   5.5971   5.6412   5.7475
  5.9892   6.3474   6.3868   6.4132   6.4294   6.5068  25.2006  25.4211
 25.4680
 --------------------------------------------------------------
 
 -----------------------------------------------------------------
                    Cartesian Multipole Moments
 -----------------------------------------------------------------
    Charge (ESU x 10^10)
                 0.0000
    Dipole Moment (Debye)
         X      -0.0319      Y      -0.0009      Z      -0.0725
       Tot       0.0792
    Quadrupole Moments (Debye-Ang)
        XX     -22.1510     XY      -0.0255     YY     -21.4363
        XZ      -0.2206     YZ       0.0015     ZZ     -21.9016
    Octopole Moments (Debye-Ang^2)
       XXX       2.9194    XXY       0.0020    XYY       0.3012
       YYY      -0.0113    XXZ      -1.6210    XYZ       0.0076
       YYZ       0.5742    XZZ       0.9044    YZZ      -0.0050
       ZZZ      -0.3334
    Hexadecapole Moments (Debye-Ang^3)
      XXXX    -203.6899   XXXY      -0.2753   XXYY     -42.3438
      XYYY      -0.0540   YYYY     -44.0762   XXXZ       2.5845
      XXYZ      -0.0013   XYYZ      -0.2423   YYYZ       0.0040
      XXZZ     -45.3647   XYZZ       0.0114   YYZZ     -17.1681
      XZZZ       0.9196   YZZZ       0.0079   ZZZZ     -72.1503
 -----------------------------------------------------------------
Archival summary:
1\1\cn0821\SP\ProcedureUnspecified\BasisUnspecified\38\r0852400\SunApr1206:54:152020SunApr1206:54:152020\0\\#,ProcedureUnspecified,BasisUnspecified,\\0,1\C\H,1,1.09259\H,1,1.09259,2,103.749\C,1,1.49552,2,119.159,3,-134.49,0\H,4,1.08891,1,104.955,2,63.7058,0\H,4,1.08904,1,109.184,2,-177.65,0\H,4,1.08921,1,109.321,2,-53.8086,0\C,1,1.55258,2,99.285,3,102.599,0\H,8,1.09202,1,117.92,2,-53.1724,0\H,8,1.09452,1,112.3,2,70.0475,0\H,8,1.0947,1,112.475,2,-175.208,0\\\@

 Total job time:  44.68s(wall), 124.14s(cpu) 
 Sun Apr 12 06:54:15 2020

        *************************************************************
        *                                                           *
        *  Thank you very much for using Q-Chem.  Have a nice day.  *
        *                                                           *
        *************************************************************


