                  Welcome to Q-Chem
     A Quantum Leap Into The Future Of Chemistry


 Q-Chem 5.2 (devel), Q-Chem, Inc., Pleasanton, CA (2019)

 Yihan Shao,  Zhengting Gan,  E. Epifanovsky,  A. T. B. Gilbert,  M. Wormit,  
 J. Kussmann,  A. W. Lange,  A. Behn,  Jia Deng,  Xintian Feng,  D. Ghosh,  
 M. Goldey,  P. R. Horn,  L. D. Jacobson,  I. Kaliman,  T. Kus,  A. Landau,  
 Jie Liu,  E. I. Proynov,  R. M. Richard,  R. P. Steele,  E. J. Sundstrom,  
 H. L. Woodcock III,  P. M. Zimmerman,  D. Zuev,  B. Alam,  B. Albrecht,  
 E. Alguire,  S. A. Baeppler,  D. Barton,  Z. Benda,  Y. A. Bernard,  
 E. J. Berquist,  K. B. Bravaya,  H. Burton,  K. Carter-Fenk,  D. Casanova,  
 Chun-Min Chang,  Yunqing Chen,  A. Chien,  K. D. Closser,  M. P. Coons,  
 S. Coriani,  S. Dasgupta,  A. L. Dempwolff,  M. Diedenhofen,  Hainam Do,  
 R. G. Edgar,  Po-Tung Fang,  S. Faraji,  S. Fatehi,  Qingguo Feng,  
 J. Fosso-Tande,  J. Gayvert,  Qinghui Ge,  A. Ghysels,  G. Gidofalvi,  
 J. Gomes,  J. Gonthier,  A. Gunina,  D. Hait,  M. W. D. Hanson-Heine,  
 P. H. P. Harbach,  A. W. Hauser,  M. F. Herbst,  J. E. Herr,  
 E. G. Hohenstein,  Z. C. Holden,  Kerwin Hui,  B. C. Huynh,  T.-C. Jagau,  
 Hyunjun Ji,  B. Kaduk,  K. Khistyaev,  Jaehoon Kim,  P. Klunzinger,  K. Koh,  
 D. Kosenkov,  L. Koulias,  T. Kowalczyk,  C. M. Krauter,  A. Kunitsa,  
 Ka Un Lao,  A. Laurent,  K. V. Lawler,  Joonho Lee,  D. Lefrancois,  
 S. Lehtola,  D. S. Levine,  Yi-Pei Li,  You-Sheng Lin,  Fenglai Liu,  
 Kuan-Yu Liu,  E. Livshits,  M. Loipersberger,  A. Luenser,  P. Manohar,  
 E. Mansoor,  S. F. Manzer,  Shan-Ping Mao,  Yuezhi Mao,  N. Mardirossian,  
 A. V. Marenich,  T. Markovich,  L. A. Martinez-Martinez,  S. A. Maurer,  
 N. J. Mayhall,  S. C. McKenzie,  J.-M. Mewes,  P. Morgante,  A. F. Morrison,  
 J. W. Mullinax,  K. Nanda,  T. S. Nguyen-Beck,  R. Olivares-Amaya,  
 J. A. Parkhill,  S. K. Paul,  Zheng Pei,  T. M. Perrine,  F. Plasser,  
 P. Pokhilko,  S. Prager,  A. Prociuk,  E. Ramos,  B. Rana,  D. R. Rehn,  
 F. Rob,  M. Scheurer,  M. Schneider,  N. Sergueev,  S. M. Sharada,  
 S. Sharma,  D. W. Small,  T. Stauch,  C. J. Stein,  T. Stein,  Yu-Chuan Su,  
 S. P. Veccham,  A. J. W. Thom,  A. Tkatchenko,  T. Tsuchimochi,  
 N. M. Tubman,  L. Vogt,  M. L. Vidal,  O. Vydrov,  M. A. Watson,  J. Wenzel,  
 M. de Wergifosse,  T. A. Wesolowski,  A. White,  J. Witte,  A. Yamada,  
 Jun Yang,  K. Yao,  S. Yeganeh,  S. R. Yost,  Zhi-Qiang You,  A. Zech,  
 Igor Ying Zhang,  Xing Zhang,  Yan Zhao,  Ying Zhu,  B. R. Brooks,  
 G. K. L. Chan,  C. J. Cramer,  M. S. Gordon,  W. J. Hehre,  A. Klamt,  
 M. W. Schmidt,  C. D. Sherrill,  D. G. Truhlar,  A. Aspuru-Guzik,  R. Baer,  
 A. T. Bell,  N. A. Besley,  Jeng-Da Chai,  A. E. DePrince, III,  
 R. A. DiStasio Jr.,  A. Dreuw,  B. D. Dunietz,  T. R. Furlani,  
 Chao-Ping Hsu,  Yousung Jung,  Jing Kong,  D. S. Lambrecht,  WanZhen Liang,  
 C. Ochsenfeld,  V. A. Rassolov,  L. V. Slipchenko,  J. E. Subotnik,  
 T. Van Voorhis,  J. M. Herbert,  A. I. Krylov,  P. M. W. Gill,  M. Head-Gordon

 Contributors to earlier versions of Q-Chem not listed above: 
 R. D. Adamson,  B. Austin,  J. Baker,  G. J. O. Beran,  K. Brandhorst,  
 S. T. Brown,  E. F. C. Byrd,  A. K. Chakraborty,  C.-L. Cheng,  
 Siu Hung Chien,  D. M. Chipman,  D. L. Crittenden,  H. Dachsel,  
 R. J. Doerksen,  A. D. Dutoi,  L. Fusti-Molnar,  W. A. Goddard III,  
 A. Golubeva-Zadorozhnaya,  S. R. Gwaltney,  G. Hawkins,  A. Heyden,  
 S. Hirata,  G. Kedziora,  F. J. Keil,  C. Kelley,  Jihan Kim,  R. A. King,  
 R. Z. Khaliullin,  P. P. Korambath,  W. Kurlancheek,  A. M. Lee,  M. S. Lee,  
 S. V. Levchenko,  Ching Yeh Lin,  D. Liotard,  R. C. Lochan,  I. Lotan,  
 P. E. Maslen,  N. Nair,  D. P. O'Neill,  D. Neuhauser,  E. Neuscamman,  
 C. M. Oana,  R. Olson,  B. Peters,  R. Peverati,  P. A. Pieniazek,  
 Y. M. Rhee,  J. Ritchie,  M. A. Rohrdanz,  E. Rosta,  N. J. Russ,  
 H. F. Schaefer III,  N. E. Schultz,  N. Shenvi,  A. C. Simmonett,  A. Sodt,  
 D. Stuck,  K. S. Thanthiriwatte,  V. Vanovschi,  Tao Wang,  A. Warshel,  
 C. F. Williams,  Q. Wu,  X. Xu,  W. Zhang

 Please cite Q-Chem as follows:
 Y. Shao et al., Mol. Phys. 113, 184-215 (2015)
 DOI: 10.1080/00268976.2014.952696

 Q-Chem 5.2.2 for Intel X86 EM64T Linux

 Parts of Q-Chem use Armadillo 9.800.1 (Horizon Scraper).
 http://arma.sourceforge.net/

 Q-Chem begins on Sun Apr 12 08:07:06 2020  

Host: cn0821
0

     Scratch files written to /tmp/ypli/6721342.srvc1/qchem193298//
Warning:  Did not find "$end" marker in "$molecule" section

Checking the input file for inconsistencies... 	...done.

--------------------------------------------------------------
User input:
--------------------------------------------------------------
$rem
   JOBTYPE  sp
   EXCHANGE   omegaB97X-D
   BASIS   6-311+G(2df,2pd)
   max_scf_cycles   250
   geom_opt_max_cycles   1500
   basis2 6-31G*
   scf_algorithm rca_diis
   SYM_IGNORE  TRUE
   print_input   true
   geom_opt_dmax   80
   pop_mulliken false
   XC_GRID 000075000302
$end

$molecule
0 1
C       1.2692065504     0.0000393723     0.2786451016
C       0.0000002827     -0.0001124053     -0.5373509530
H       1.3058579736     -0.8896111741     0.9318281516
H       1.3059297258     0.8890454446     0.9311760695
H       2.1323433724     0.0000590176     -0.3131793572
C       -1.2692058191     0.0000396407     0.2786447264
H       0.0000004142     -1.1030542334     -1.3886284808
H       0.0000002744     1.1041013305     -1.3899167064
H       -1.3058577017     -0.8896145501     0.9318305054
H       -2.1323457452     0.0000596894     -0.3131818073
H       -1.3059293879     0.8890485338     0.9311777693
--------------------------------------------------------------
 ----------------------------------------------------------------
             Standard Nuclear Orientation (Angstroms)
    I     Atom           X                Y                Z
 ----------------------------------------------------------------
    1      C       1.2692065504     0.0000393723     0.2786451016
    2      C       0.0000002827    -0.0001124053    -0.5373509530
    3      H       1.3058579736    -0.8896111741     0.9318281516
    4      H       1.3059297258     0.8890454446     0.9311760695
    5      H       2.1323433724     0.0000590176    -0.3131793572
    6      C      -1.2692058191     0.0000396407     0.2786447264
    7      H       0.0000004142    -1.1030542334    -1.3886284808
    8      H       0.0000002744     1.1041013305    -1.3899167064
    9      H      -1.3058577017    -0.8896145501     0.9318305054
   10      H      -2.1323457452     0.0000596894    -0.3131818073
   11      H      -1.3059293879     0.8890485338     0.9311777693
 ----------------------------------------------------------------
 Nuclear Repulsion Energy =          81.17507051 hartrees
 There are       13 alpha and       13 beta electrons
 Requested basis set is 6-311+G(2df,2pd)
 There are 72 shells and 214 basis functions

 Total QAlloc Memory Limit   2000 MB
 Mega-Array Size       188 MB
 MEM_STATIC part       192 MB

                       Distance Matrix (Angstroms)
             C (  1)   C (  2)   H (  3)   H (  4)   H (  5)   C (  6)
   C (  2)  1.508885
   H (  3)  1.104296  2.157536
   H (  4)  1.103393  2.156994  1.778657
   H (  5)  1.046547  2.144094  1.739148  1.738297
   C (  6)  2.538412  1.508885  2.801621  2.801330  3.452650
   H (  7)  2.368016  1.393253  2.671206  3.324967  2.630653  2.368016
   H (  8)  2.369375  1.395047  3.327259  2.671923  2.631570  2.369374
   H (  9)  2.801623  2.157539  2.611716  3.159915  3.763349  1.104301
   H ( 10)  3.452654  2.144097  3.763351  3.763039  4.264689  1.046551
   H ( 11)  2.801332  2.156997  3.159915  2.611859  3.763037  1.103397
             H (  7)   H (  8)   H (  9)   H ( 10)
   H (  8)  2.207156
   H (  9)  2.671208  3.327263
   H ( 10)  2.630655  2.631571  1.739155
   H ( 11)  3.324970  2.671924  1.778663  1.738303
 
 A cutoff of  1.0D-09 yielded   2514 shell pairs
 There are     22428 function pairs (     27583 Cartesian)
 Smallest overlap matrix eigenvalue = 8.74E-05

 Scale SEOQF with 1.000000e-01/1.000000e-01/1.000000e-01

 Standard Electronic Orientation quadrupole field applied
 Nucleus-field energy     =     0.0000000006 hartrees
 Requested basis set is 6-31G(d)
 There are 28 shells and 58 basis functions
 A cutoff of  1.0D-09 yielded    402 shell pairs
 There are      1773 function pairs (      1968 Cartesian)
 Smallest overlap matrix eigenvalue = 7.24E-03
 Guess from superposition of atomic densities
 Warning:  Energy on first SCF cycle will be non-variational
 SAD guess density has 26.000000 electrons
 Long-range K will be added via erf
 Coulomb attenuation parameter = 0.2 bohr**(-1)
 A restricted hybrid HF-DFT SCF calculation will be
 performed using Relaxed Constraint Minimization + Pulay DIIS
 Exchange:     0.2220 Hartree-Fock + 1.0000 wB97X-D + LR-HF
 Correlation:  1.0000 wB97X-D
 Using Euler-Maclaurin-Lebedev (75,302) quadrature formula
 Dispersion:   Grimme D
 SCF converges when DIIS error is below 1.0E-04
 using 3 threads for integral computing
 -------------------------------------------------------
 OpenMP Integral computing Module                
 Release: version 1.0, May 2013, Q-Chem Inc. Pittsburgh 
 -------------------------------------------------------
 using 3 threads for integral computing
 -------------------------------------------------------
 OpenMP Integral computing Module                
 Release: version 1.0, May 2013, Q-Chem Inc. Pittsburgh 
 -------------------------------------------------------
 ---------------------------------------
  Cycle       Energy         DIIS Error
 ---------------------------------------
    1    -119.3651740977      9.48E-02
    2    -119.0028423040      8.72E-03
    3    -119.0225268016      2.42E-03
    4    -119.0355365580      1.75E-03
    5    -119.0362702192      2.15E-04 Done RCA. Switching to DIIS
    6    -119.0368923055      1.82E-04
    7    -119.0369074230      5.43E-06 Convergence criterion met
 ---------------------------------------
 SCF time:  CPU 33.01 s  wall 11.43 s
 SCF   energy in the small basis set = -119.03690742
 Total energy in the small basis set = -119.03690742
 ----------------------------------------------------
  Cycle       Energy    
 ----------------------------------------------------
    1     -16.3996501512     -1.64E+01
 Long-range K will be added via erf
 Coulomb attenuation parameter = 0.2 bohr**(-1)
 A restricted hybrid HF-DFT SCF calculation will be
 performed using Relaxed Constraint Minimization + Pulay DIIS
 Exchange:     0.2220 Hartree-Fock + 1.0000 wB97X-D + LR-HF
 Correlation:  1.0000 wB97X-D
 Using Euler-Maclaurin-Lebedev (75,302) quadrature formula
 Dispersion:   Grimme D
 SCF converges when DIIS error is below 1.0E-05
 Basis2 calculation detected. Using small basis as guess for larger.
 SCFMinFind is unable to tell whether the solution found is close.
 Resetting ReadMinima to 0 and attempting to follow guess.
 SCFMinFind following SCF Guess.
 using 3 threads for integral computing
 -------------------------------------------------------
 OpenMP Integral computing Module                
 Release: version 1.0, May 2013, Q-Chem Inc. Pittsburgh 
 -------------------------------------------------------
 using 3 threads for integral computing
 -------------------------------------------------------
 OpenMP Integral computing Module                
 Release: version 1.0, May 2013, Q-Chem Inc. Pittsburgh 
 -------------------------------------------------------
 ---------------------------------------
  Cycle       Energy         DIIS Error
 ---------------------------------------
    1    -119.0558730392      4.19E-03
    2    -119.0777594021      5.25E-04 Done RCA. Switching to DIIS
    3    -119.0784181179      3.76E-04
    4    -119.0792061517      5.88E-05
    5    -119.0792278945      2.38E-05
    6    -119.0792311853      3.96E-06 Convergence criterion met
 ---------------------------------------
 SCF time:  CPU 97.68 s  wall 33.06 s

 Q-Chem warning in module 0, line  198:

 OriOrb: Failure to resolve orbital degeneracies.


 Q-Chem warning in module 0, line  198:

 OriOrb: Failure to resolve orbital degeneracies.

 SCF   energy in the final basis set = -119.07923119
 Total energy in the final basis set = -119.07923119
 
 --------------------------------------------------------------
 
                    Orbital Energies (a.u.)
 --------------------------------------------------------------
 
 Alpha MOs
 -- Occupied --
-10.3307 -10.2699 -10.2699  -0.8803  -0.7883  -0.6475  -0.5334  -0.5306
 -0.4890  -0.4667  -0.4372  -0.4021  -0.3726
 -- Virtual --
  0.0676   0.0832   0.0838   0.0904   0.1225   0.1281   0.1322   0.1356
  0.1400   0.1644   0.1690   0.1909   0.1913   0.2144   0.2333   0.2370
  0.2747   0.2910   0.3041   0.3141   0.3245   0.3515   0.4488   0.4691
  0.4795   0.5075   0.5087   0.5150   0.5436   0.5445   0.5492   0.5745
  0.6150   0.6215   0.6284   0.6347   0.6405   0.6529   0.6584   0.7037
  0.7224   0.7502   0.7938   0.8442   0.8537   0.8609   0.9301   0.9311
  0.9971   0.9980   1.0550   1.1154   1.1530   1.1556   1.1579   1.1669
  1.1807   1.1874   1.2147   1.2314   1.2573   1.2854   1.3353   1.3672
  1.3795   1.3943   1.3995   1.4030   1.4257   1.4310   1.4448   1.4654
  1.4715   1.5236   1.5919   1.6181   1.6237   1.6360   1.6751   1.6931
  1.7023   2.3469   2.4034   2.4344   2.5080   2.5639   2.5944   2.6693
  2.6712   2.7218   2.7241   2.8054   2.8119   2.8307   2.8322   2.8523
  2.8879   2.9292   2.9310   2.9720   2.9779   3.0519   3.0814   3.0907
  3.0942   3.1243   3.1383   3.1719   3.1853   3.1920   3.2030   3.2058
  3.2262   3.2900   3.3183   3.3232   3.3471   3.3499   3.3548   3.3574
  3.4516   3.4862   3.4963   3.5165   3.5275   3.5447   3.5727   3.5939
  3.6269   3.6320   3.6559   3.6807   3.7346   3.7444   3.7626   3.7934
  3.8365   3.8528   3.8700   3.8916   3.9012   3.9483   3.9672   3.9965
  3.9986   4.0065   4.0638   4.0675   4.0909   4.1056   4.1140   4.1483
  4.1653   4.2181   4.2206   4.2360   4.3054   4.3134   4.3157   4.3280
  4.3863   4.4051   4.4231   4.4479   4.5206   4.5446   4.5761   4.7063
  4.7454   4.7961   4.8480   4.8491   4.9243   4.9724   4.9742   5.0032
  5.0155   5.1278   5.2052   5.2361   5.2481   5.2489   5.2696   5.3050
  5.3443   5.3502   5.3982   5.4001   5.4073   5.4420   5.4836   5.6169
  5.6951   5.7690   6.3446   6.3448   6.4465   6.4531  24.2924  25.4491
 25.4823
 --------------------------------------------------------------
 
 -----------------------------------------------------------------
                    Cartesian Multipole Moments
 -----------------------------------------------------------------
    Charge (ESU x 10^10)
                 0.0000
    Dipole Moment (Debye)
         X       0.0000      Y      -0.0012      Z       0.4316
       Tot       0.4316
    Quadrupole Moments (Debye-Ang)
        XX     -21.7193     XY      -0.0000     YY     -21.9123
        XZ       0.0000     YZ       0.0031     ZZ     -22.8768
    Octopole Moments (Debye-Ang^2)
       XXX       0.0000    XXY       0.0035    XYY       0.0000
       YYY      -0.0043    XXZ      -0.9250    XYZ       0.0000
       YYZ       0.9051    XZZ       0.0000    YZZ      -0.0044
       ZZZ       1.5724
    Hexadecapole Moments (Debye-Ang^3)
      XXXX    -194.3268   XXXY      -0.0000   XXYY     -42.8095
      XYYY       0.0000   YYYY     -53.1835   XXXZ       0.0001
      XXYZ       0.0105   XYYZ      -0.0000   YYYZ       0.0263
      XXZZ     -46.5722   XYZZ       0.0000   YYZZ     -19.5673
      XZZZ       0.0000   YZZZ       0.0282   ZZZZ     -83.8595
 -----------------------------------------------------------------
Archival summary:
1\1\cn0821\SP\ProcedureUnspecified\BasisUnspecified\38\r0852400\SunApr1208:07:562020SunApr1208:07:562020\0\\#,ProcedureUnspecified,BasisUnspecified,\\0,1\C\H,1,1.39325\H,1,1.39505,2,104.666\C,1,1.50888,2,109.299,3,116.971,0\H,4,1.04655,1,112.825,2,-57.0051,0\H,4,1.1034,1,110.359,2,-177.763,0\H,4,1.1043,1,110.347,2,63.7579,0\C,1,1.50889,2,109.299,3,-116.971,0\H,8,1.04655,1,112.825,2,57.005,0\H,8,1.10339,1,110.359,2,177.763,0\H,8,1.1043,1,110.347,2,-63.7579,0\\\@

 Total job time:  49.72s(wall), 138.87s(cpu) 
 Sun Apr 12 08:07:56 2020

        *************************************************************
        *                                                           *
        *  Thank you very much for using Q-Chem.  Have a nice day.  *
        *                                                           *
        *************************************************************


