                  Welcome to Q-Chem
     A Quantum Leap Into The Future Of Chemistry


 Q-Chem 5.2 (devel), Q-Chem, Inc., Pleasanton, CA (2019)

 Yihan Shao,  Zhengting Gan,  E. Epifanovsky,  A. T. B. Gilbert,  M. Wormit,  
 J. Kussmann,  A. W. Lange,  A. Behn,  Jia Deng,  Xintian Feng,  D. Ghosh,  
 M. Goldey,  P. R. Horn,  L. D. Jacobson,  I. Kaliman,  T. Kus,  A. Landau,  
 Jie Liu,  E. I. Proynov,  R. M. Richard,  R. P. Steele,  E. J. Sundstrom,  
 H. L. Woodcock III,  P. M. Zimmerman,  D. Zuev,  B. Alam,  B. Albrecht,  
 E. Alguire,  S. A. Baeppler,  D. Barton,  Z. Benda,  Y. A. Bernard,  
 E. J. Berquist,  K. B. Bravaya,  H. Burton,  K. Carter-Fenk,  D. Casanova,  
 Chun-Min Chang,  Yunqing Chen,  A. Chien,  K. D. Closser,  M. P. Coons,  
 S. Coriani,  S. Dasgupta,  A. L. Dempwolff,  M. Diedenhofen,  Hainam Do,  
 R. G. Edgar,  Po-Tung Fang,  S. Faraji,  S. Fatehi,  Qingguo Feng,  
 J. Fosso-Tande,  J. Gayvert,  Qinghui Ge,  A. Ghysels,  G. Gidofalvi,  
 J. Gomes,  J. Gonthier,  A. Gunina,  D. Hait,  M. W. D. Hanson-Heine,  
 P. H. P. Harbach,  A. W. Hauser,  M. F. Herbst,  J. E. Herr,  
 E. G. Hohenstein,  Z. C. Holden,  Kerwin Hui,  B. C. Huynh,  T.-C. Jagau,  
 Hyunjun Ji,  B. Kaduk,  K. Khistyaev,  Jaehoon Kim,  P. Klunzinger,  K. Koh,  
 D. Kosenkov,  L. Koulias,  T. Kowalczyk,  C. M. Krauter,  A. Kunitsa,  
 Ka Un Lao,  A. Laurent,  K. V. Lawler,  Joonho Lee,  D. Lefrancois,  
 S. Lehtola,  D. S. Levine,  Yi-Pei Li,  You-Sheng Lin,  Fenglai Liu,  
 Kuan-Yu Liu,  E. Livshits,  M. Loipersberger,  A. Luenser,  P. Manohar,  
 E. Mansoor,  S. F. Manzer,  Shan-Ping Mao,  Yuezhi Mao,  N. Mardirossian,  
 A. V. Marenich,  T. Markovich,  L. A. Martinez-Martinez,  S. A. Maurer,  
 N. J. Mayhall,  S. C. McKenzie,  J.-M. Mewes,  P. Morgante,  A. F. Morrison,  
 J. W. Mullinax,  K. Nanda,  T. S. Nguyen-Beck,  R. Olivares-Amaya,  
 J. A. Parkhill,  S. K. Paul,  Zheng Pei,  T. M. Perrine,  F. Plasser,  
 P. Pokhilko,  S. Prager,  A. Prociuk,  E. Ramos,  B. Rana,  D. R. Rehn,  
 F. Rob,  M. Scheurer,  M. Schneider,  N. Sergueev,  S. M. Sharada,  
 S. Sharma,  D. W. Small,  T. Stauch,  C. J. Stein,  T. Stein,  Yu-Chuan Su,  
 S. P. Veccham,  A. J. W. Thom,  A. Tkatchenko,  T. Tsuchimochi,  
 N. M. Tubman,  L. Vogt,  M. L. Vidal,  O. Vydrov,  M. A. Watson,  J. Wenzel,  
 M. de Wergifosse,  T. A. Wesolowski,  A. White,  J. Witte,  A. Yamada,  
 Jun Yang,  K. Yao,  S. Yeganeh,  S. R. Yost,  Zhi-Qiang You,  A. Zech,  
 Igor Ying Zhang,  Xing Zhang,  Yan Zhao,  Ying Zhu,  B. R. Brooks,  
 G. K. L. Chan,  C. J. Cramer,  M. S. Gordon,  W. J. Hehre,  A. Klamt,  
 M. W. Schmidt,  C. D. Sherrill,  D. G. Truhlar,  A. Aspuru-Guzik,  R. Baer,  
 A. T. Bell,  N. A. Besley,  Jeng-Da Chai,  A. E. DePrince, III,  
 R. A. DiStasio Jr.,  A. Dreuw,  B. D. Dunietz,  T. R. Furlani,  
 Chao-Ping Hsu,  Yousung Jung,  Jing Kong,  D. S. Lambrecht,  WanZhen Liang,  
 C. Ochsenfeld,  V. A. Rassolov,  L. V. Slipchenko,  J. E. Subotnik,  
 T. Van Voorhis,  J. M. Herbert,  A. I. Krylov,  P. M. W. Gill,  M. Head-Gordon

 Contributors to earlier versions of Q-Chem not listed above: 
 R. D. Adamson,  B. Austin,  J. Baker,  G. J. O. Beran,  K. Brandhorst,  
 S. T. Brown,  E. F. C. Byrd,  A. K. Chakraborty,  C.-L. Cheng,  
 Siu Hung Chien,  D. M. Chipman,  D. L. Crittenden,  H. Dachsel,  
 R. J. Doerksen,  A. D. Dutoi,  L. Fusti-Molnar,  W. A. Goddard III,  
 A. Golubeva-Zadorozhnaya,  S. R. Gwaltney,  G. Hawkins,  A. Heyden,  
 S. Hirata,  G. Kedziora,  F. J. Keil,  C. Kelley,  Jihan Kim,  R. A. King,  
 R. Z. Khaliullin,  P. P. Korambath,  W. Kurlancheek,  A. M. Lee,  M. S. Lee,  
 S. V. Levchenko,  Ching Yeh Lin,  D. Liotard,  R. C. Lochan,  I. Lotan,  
 P. E. Maslen,  N. Nair,  D. P. O'Neill,  D. Neuhauser,  E. Neuscamman,  
 C. M. Oana,  R. Olson,  B. Peters,  R. Peverati,  P. A. Pieniazek,  
 Y. M. Rhee,  J. Ritchie,  M. A. Rohrdanz,  E. Rosta,  N. J. Russ,  
 H. F. Schaefer III,  N. E. Schultz,  N. Shenvi,  A. C. Simmonett,  A. Sodt,  
 D. Stuck,  K. S. Thanthiriwatte,  V. Vanovschi,  Tao Wang,  A. Warshel,  
 C. F. Williams,  Q. Wu,  X. Xu,  W. Zhang

 Please cite Q-Chem as follows:
 Y. Shao et al., Mol. Phys. 113, 184-215 (2015)
 DOI: 10.1080/00268976.2014.952696

 Q-Chem 5.2.2 for Intel X86 EM64T Linux

 Parts of Q-Chem use Armadillo 9.800.1 (Horizon Scraper).
 http://arma.sourceforge.net/

 Q-Chem begins on Sun Apr 12 07:34:51 2020  

Host: cn0821
0

     Scratch files written to /tmp/ypli/6721342.srvc1/qchem188524//
Warning:  Did not find "$end" marker in "$molecule" section

Checking the input file for inconsistencies... 	...done.

--------------------------------------------------------------
User input:
--------------------------------------------------------------
$rem
   JOBTYPE  sp
   EXCHANGE   omegaB97X-D
   BASIS   6-311+G(2df,2pd)
   max_scf_cycles   250
   geom_opt_max_cycles   1500
   basis2 6-31G*
   scf_algorithm rca_diis
   SYM_IGNORE  TRUE
   print_input   true
   geom_opt_dmax   80
   pop_mulliken false
   XC_GRID 000075000302
$end

$molecule
0 1
C       1.2622901477     -0.0259856333     0.2840067715
C       -0.0000000136     -0.0252189423     -0.5524485033
H       1.2426437942     -0.9244027276     0.8984149607
H       1.3894001952     0.8967788900     0.8556581653
H       2.1800961749     0.0854851037     -0.2968508113
C       -1.2622900773     -0.0259858495     0.2840067647
H       0.0000003916     -0.8243920998     -1.3018037018
H       -0.0000001626     0.7858585243     -1.2871613946
H       -1.2426426458     -0.9244024836     0.8984154488
H       -2.1800960656     0.0854872251     -0.2968505754
H       -1.3894017994     0.8967786592     0.8556578944
--------------------------------------------------------------
 ----------------------------------------------------------------
             Standard Nuclear Orientation (Angstroms)
    I     Atom           X                Y                Z
 ----------------------------------------------------------------
    1      C       1.2622901477    -0.0259856333     0.2840067715
    2      C      -0.0000000136    -0.0252189423    -0.5524485033
    3      H       1.2426437942    -0.9244027276     0.8984149607
    4      H       1.3894001952     0.8967788900     0.8556581653
    5      H       2.1800961749     0.0854851037    -0.2968508113
    6      C      -1.2622900773    -0.0259858495     0.2840067647
    7      H       0.0000003916    -0.8243920998    -1.3018037018
    8      H      -0.0000001626     0.7858585243    -1.2871613946
    9      H      -1.2426426458    -0.9244024836     0.8984154488
   10      H      -2.1800960656     0.0854872251    -0.2968505754
   11      H      -1.3894017994     0.8967786592     0.8556578944
 ----------------------------------------------------------------
 Nuclear Repulsion Energy =          82.88012063 hartrees
 There are       13 alpha and       13 beta electrons
 Requested basis set is 6-311+G(2df,2pd)
 There are 72 shells and 214 basis functions

 Total QAlloc Memory Limit   2000 MB
 Mega-Array Size       188 MB
 MEM_STATIC part       192 MB

                       Distance Matrix (Angstroms)
             C (  1)   C (  2)   H (  3)   H (  4)   H (  5)   C (  6)
   C (  2)  1.514277
   H (  3)  1.088594  2.111327
   H (  4)  1.092903  2.182493  1.827585
   H (  5)  1.091874  2.197818  1.824103  1.616068
   C (  6)  2.524580  1.514277  2.731180  2.865265  3.492828
   H (  7)  2.178445  1.095541  2.528859  3.089903  2.567221  2.178445
   H (  8)  2.172795  1.094372  3.040707  2.556250  2.494806  2.172795
   H (  9)  2.731179  2.111326  2.485286  3.200965  3.763466  1.088594
   H ( 10)  3.492828  2.197818  3.763467  3.837678  4.360192  1.091874
   H ( 11)  2.865266  2.182494  3.200968  2.778802  3.837680  1.092903
             H (  7)   H (  8)   H (  9)   H ( 10)
   H (  8)  1.610317
   H (  9)  2.528859  3.040707
   H ( 10)  2.567223  2.494805  1.824104
   H ( 11)  3.089904  2.556250  1.827585  1.616065
 
 A cutoff of  1.0D-09 yielded   2534 shell pairs
 There are     22580 function pairs (     27761 Cartesian)
 Smallest overlap matrix eigenvalue = 9.19E-05

 Scale SEOQF with 1.000000e-01/1.000000e-01/1.000000e-01

 Standard Electronic Orientation quadrupole field applied
 Nucleus-field energy     =     0.0000000006 hartrees
 Requested basis set is 6-31G(d)
 There are 28 shells and 58 basis functions
 A cutoff of  1.0D-09 yielded    402 shell pairs
 There are      1773 function pairs (      1968 Cartesian)
 Smallest overlap matrix eigenvalue = 7.11E-03
 Guess from superposition of atomic densities
 Warning:  Energy on first SCF cycle will be non-variational
 SAD guess density has 26.000000 electrons
 Long-range K will be added via erf
 Coulomb attenuation parameter = 0.2 bohr**(-1)
 A restricted hybrid HF-DFT SCF calculation will be
 performed using Relaxed Constraint Minimization + Pulay DIIS
 Exchange:     0.2220 Hartree-Fock + 1.0000 wB97X-D + LR-HF
 Correlation:  1.0000 wB97X-D
 Using Euler-Maclaurin-Lebedev (75,302) quadrature formula
 Dispersion:   Grimme D
 SCF converges when DIIS error is below 1.0E-04
 using 3 threads for integral computing
 -------------------------------------------------------
 OpenMP Integral computing Module                
 Release: version 1.0, May 2013, Q-Chem Inc. Pittsburgh 
 -------------------------------------------------------
 using 3 threads for integral computing
 -------------------------------------------------------
 OpenMP Integral computing Module                
 Release: version 1.0, May 2013, Q-Chem Inc. Pittsburgh 
 -------------------------------------------------------
 ---------------------------------------
  Cycle       Energy         DIIS Error
 ---------------------------------------
    1    -119.6466570754      1.01E-01
    2    -119.0510163316      9.12E-03
    3    -119.0724763697      2.45E-03
    4    -119.0870720303      1.69E-03
    5    -119.0877645117      2.49E-04 Done RCA. Switching to DIIS
    6    -119.0882922456      1.84E-04
    7    -119.0883070634      5.55E-06 Convergence criterion met
 ---------------------------------------
 SCF time:  CPU 32.26 s  wall 11.10 s
 SCF   energy in the small basis set = -119.08830706
 Total energy in the small basis set = -119.08830706
 ----------------------------------------------------
  Cycle       Energy    
 ----------------------------------------------------
    1     -16.5423348169     -1.65E+01
 Long-range K will be added via erf
 Coulomb attenuation parameter = 0.2 bohr**(-1)
 A restricted hybrid HF-DFT SCF calculation will be
 performed using Relaxed Constraint Minimization + Pulay DIIS
 Exchange:     0.2220 Hartree-Fock + 1.0000 wB97X-D + LR-HF
 Correlation:  1.0000 wB97X-D
 Using Euler-Maclaurin-Lebedev (75,302) quadrature formula
 Dispersion:   Grimme D
 SCF converges when DIIS error is below 1.0E-05
 Basis2 calculation detected. Using small basis as guess for larger.
 SCFMinFind is unable to tell whether the solution found is close.
 Resetting ReadMinima to 0 and attempting to follow guess.
 SCFMinFind following SCF Guess.
 using 3 threads for integral computing
 -------------------------------------------------------
 OpenMP Integral computing Module                
 Release: version 1.0, May 2013, Q-Chem Inc. Pittsburgh 
 -------------------------------------------------------
 using 3 threads for integral computing
 -------------------------------------------------------
 OpenMP Integral computing Module                
 Release: version 1.0, May 2013, Q-Chem Inc. Pittsburgh 
 -------------------------------------------------------
 ---------------------------------------
  Cycle       Energy         DIIS Error
 ---------------------------------------
    1    -119.1083205550      4.21E-03
    2    -119.1303159220      5.99E-04 Done RCA. Switching to DIIS
    3    -119.1311287099      4.26E-04
    4    -119.1321202273      4.90E-05
    5    -119.1321367125      1.13E-05
    6    -119.1321375797      3.77E-06 Convergence criterion met
 ---------------------------------------
 SCF time:  CPU 97.90 s  wall 33.10 s
 SCF   energy in the final basis set = -119.13213758
 Total energy in the final basis set = -119.13213758
 
 --------------------------------------------------------------
 
                    Orbital Energies (a.u.)
 --------------------------------------------------------------
 
 Alpha MOs
 -- Occupied --
-10.2728 -10.2658 -10.2658  -0.8831  -0.7798  -0.6824  -0.5546  -0.5202
 -0.4830  -0.4689  -0.4171  -0.4155  -0.3957
 -- Virtual --
  0.0690   0.0851   0.0906   0.0982   0.1268   0.1305   0.1339   0.1419
  0.1451   0.1702   0.1722   0.1899   0.2281   0.2452   0.2473   0.2515
  0.2856   0.2858   0.3138   0.3163   0.3362   0.3439   0.4550   0.4717
  0.4742   0.5044   0.5132   0.5288   0.5545   0.5591   0.5824   0.5881
  0.6276   0.6280   0.6318   0.6395   0.6578   0.6652   0.7042   0.7252
  0.7325   0.7739   0.8051   0.8538   0.8643   0.8657   0.8936   0.9573
  1.0030   1.0407   1.0715   1.1294   1.1636   1.1697   1.1859   1.2051
  1.2244   1.2489   1.2571   1.2904   1.2926   1.3158   1.3255   1.3693
  1.3783   1.3884   1.3963   1.4494   1.4696   1.4743   1.4884   1.4988
  1.5025   1.5563   1.6055   1.6315   1.6392   1.6519   1.6937   1.7305
  1.7398   2.3756   2.4611   2.4869   2.4939   2.5515   2.5521   2.6026
  2.6317   2.6973   2.8105   2.8185   2.8316   2.8962   2.8981   2.9187
  2.9277   2.9614   3.0116   3.0169   3.0613   3.0647   3.0908   3.1207
  3.1402   3.1560   3.1577   3.1923   3.2087   3.2291   3.2542   3.2750
  3.3098   3.3303   3.3371   3.3705   3.3993   3.4400   3.4417   3.4629
  3.4713   3.4843   3.5173   3.5192   3.5538   3.5682   3.5694   3.5941
  3.6274   3.6323   3.6796   3.6885   3.7409   3.7434   3.8130   3.8626
  3.9169   3.9226   3.9331   3.9594   3.9733   3.9905   4.0388   4.0812
  4.0821   4.0849   4.1265   4.1338   4.1517   4.1665   4.2049   4.2170
  4.2508   4.2629   4.2676   4.3536   4.4074   4.4144   4.4300   4.4472
  4.5264   4.5418   4.5861   4.6240   4.6718   4.7587   4.7837   4.8244
  4.9138   4.9393   4.9610   4.9712   5.0258   5.0721   5.0844   5.1436
  5.1543   5.1678   5.2072   5.3077   5.3226   5.3652   5.3902   5.4088
  5.4353   5.4768   5.5012   5.5525   5.5697   5.6107   5.6805   5.7795
  5.9649   6.3250   6.3479   6.4165   6.4290   6.4848  25.2042  25.4473
 25.4625
 --------------------------------------------------------------
 
 -----------------------------------------------------------------
                    Cartesian Multipole Moments
 -----------------------------------------------------------------
    Charge (ESU x 10^10)
                -0.0000
    Dipole Moment (Debye)
         X      -0.0000      Y       0.1358      Z      -0.1665
       Tot       0.2148
    Quadrupole Moments (Debye-Ang)
        XX     -21.8334     XY      -0.0000     YY     -21.3402
        XZ      -0.0000     YZ      -0.2509     ZZ     -22.0279
    Octopole Moments (Debye-Ang^2)
       XXX      -0.0000    XXY       2.5587    XYY       0.0000
       YYY       1.0164    XXZ      -1.4253    XYZ       0.0000
       YYZ       0.6141    XZZ       0.0000    YZZ       0.0250
       ZZZ      -2.8096
    Hexadecapole Moments (Debye-Ang^3)
      XXXX    -200.3543   XXXY      -0.0000   XXYY     -41.2943
      XYYY       0.0000   YYYY     -44.1248   XXXZ      -0.0000
      XXYZ       0.1021   XYYZ       0.0000   YYYZ      -0.0985
      XXZZ     -46.3672   XYZZ       0.0000   YYZZ     -17.4651
      XZZZ      -0.0000   YZZZ      -0.1140   ZZZZ     -71.5480
 -----------------------------------------------------------------
Archival summary:
1\1\cn0821\SP\ProcedureUnspecified\BasisUnspecified\38\r0852400\SunApr1207:35:392020SunApr1207:35:392020\0\\#,ProcedureUnspecified,BasisUnspecified,\\0,1\C\H,1,1.09437\H,1,1.09554,2,94.6708\C,1,1.51428,2,111.791,3,-116.137,0\H,4,1.08859,1,107.286,2,173.147,0\H,4,1.09187,1,114.004,2,46.5066,0\H,4,1.0929,1,112.672,2,-60.8236,0\C,1,1.51428,2,111.791,3,116.137,0\H,8,1.08859,1,107.286,2,-173.147,0\H,8,1.09187,1,114.004,2,-46.5067,0\H,8,1.0929,1,112.672,2,60.8237,0\\\@

 Total job time:  48.44s(wall), 135.31s(cpu) 
 Sun Apr 12 07:35:39 2020

        *************************************************************
        *                                                           *
        *  Thank you very much for using Q-Chem.  Have a nice day.  *
        *                                                           *
        *************************************************************


