                  Welcome to Q-Chem
     A Quantum Leap Into The Future Of Chemistry


 Q-Chem 5.2 (devel), Q-Chem, Inc., Pleasanton, CA (2019)

 Yihan Shao,  Zhengting Gan,  E. Epifanovsky,  A. T. B. Gilbert,  M. Wormit,  
 J. Kussmann,  A. W. Lange,  A. Behn,  Jia Deng,  Xintian Feng,  D. Ghosh,  
 M. Goldey,  P. R. Horn,  L. D. Jacobson,  I. Kaliman,  T. Kus,  A. Landau,  
 Jie Liu,  E. I. Proynov,  R. M. Richard,  R. P. Steele,  E. J. Sundstrom,  
 H. L. Woodcock III,  P. M. Zimmerman,  D. Zuev,  B. Alam,  B. Albrecht,  
 E. Alguire,  S. A. Baeppler,  D. Barton,  Z. Benda,  Y. A. Bernard,  
 E. J. Berquist,  K. B. Bravaya,  H. Burton,  K. Carter-Fenk,  D. Casanova,  
 Chun-Min Chang,  Yunqing Chen,  A. Chien,  K. D. Closser,  M. P. Coons,  
 S. Coriani,  S. Dasgupta,  A. L. Dempwolff,  M. Diedenhofen,  Hainam Do,  
 R. G. Edgar,  Po-Tung Fang,  S. Faraji,  S. Fatehi,  Qingguo Feng,  
 J. Fosso-Tande,  J. Gayvert,  Qinghui Ge,  A. Ghysels,  G. Gidofalvi,  
 J. Gomes,  J. Gonthier,  A. Gunina,  D. Hait,  M. W. D. Hanson-Heine,  
 P. H. P. Harbach,  A. W. Hauser,  M. F. Herbst,  J. E. Herr,  
 E. G. Hohenstein,  Z. C. Holden,  Kerwin Hui,  B. C. Huynh,  T.-C. Jagau,  
 Hyunjun Ji,  B. Kaduk,  K. Khistyaev,  Jaehoon Kim,  P. Klunzinger,  K. Koh,  
 D. Kosenkov,  L. Koulias,  T. Kowalczyk,  C. M. Krauter,  A. Kunitsa,  
 Ka Un Lao,  A. Laurent,  K. V. Lawler,  Joonho Lee,  D. Lefrancois,  
 S. Lehtola,  D. S. Levine,  Yi-Pei Li,  You-Sheng Lin,  Fenglai Liu,  
 Kuan-Yu Liu,  E. Livshits,  M. Loipersberger,  A. Luenser,  P. Manohar,  
 E. Mansoor,  S. F. Manzer,  Shan-Ping Mao,  Yuezhi Mao,  N. Mardirossian,  
 A. V. Marenich,  T. Markovich,  L. A. Martinez-Martinez,  S. A. Maurer,  
 N. J. Mayhall,  S. C. McKenzie,  J.-M. Mewes,  P. Morgante,  A. F. Morrison,  
 J. W. Mullinax,  K. Nanda,  T. S. Nguyen-Beck,  R. Olivares-Amaya,  
 J. A. Parkhill,  S. K. Paul,  Zheng Pei,  T. M. Perrine,  F. Plasser,  
 P. Pokhilko,  S. Prager,  A. Prociuk,  E. Ramos,  B. Rana,  D. R. Rehn,  
 F. Rob,  M. Scheurer,  M. Schneider,  N. Sergueev,  S. M. Sharada,  
 S. Sharma,  D. W. Small,  T. Stauch,  C. J. Stein,  T. Stein,  Yu-Chuan Su,  
 S. P. Veccham,  A. J. W. Thom,  A. Tkatchenko,  T. Tsuchimochi,  
 N. M. Tubman,  L. Vogt,  M. L. Vidal,  O. Vydrov,  M. A. Watson,  J. Wenzel,  
 M. de Wergifosse,  T. A. Wesolowski,  A. White,  J. Witte,  A. Yamada,  
 Jun Yang,  K. Yao,  S. Yeganeh,  S. R. Yost,  Zhi-Qiang You,  A. Zech,  
 Igor Ying Zhang,  Xing Zhang,  Yan Zhao,  Ying Zhu,  B. R. Brooks,  
 G. K. L. Chan,  C. J. Cramer,  M. S. Gordon,  W. J. Hehre,  A. Klamt,  
 M. W. Schmidt,  C. D. Sherrill,  D. G. Truhlar,  A. Aspuru-Guzik,  R. Baer,  
 A. T. Bell,  N. A. Besley,  Jeng-Da Chai,  A. E. DePrince, III,  
 R. A. DiStasio Jr.,  A. Dreuw,  B. D. Dunietz,  T. R. Furlani,  
 Chao-Ping Hsu,  Yousung Jung,  Jing Kong,  D. S. Lambrecht,  WanZhen Liang,  
 C. Ochsenfeld,  V. A. Rassolov,  L. V. Slipchenko,  J. E. Subotnik,  
 T. Van Voorhis,  J. M. Herbert,  A. I. Krylov,  P. M. W. Gill,  M. Head-Gordon

 Contributors to earlier versions of Q-Chem not listed above: 
 R. D. Adamson,  B. Austin,  J. Baker,  G. J. O. Beran,  K. Brandhorst,  
 S. T. Brown,  E. F. C. Byrd,  A. K. Chakraborty,  C.-L. Cheng,  
 Siu Hung Chien,  D. M. Chipman,  D. L. Crittenden,  H. Dachsel,  
 R. J. Doerksen,  A. D. Dutoi,  L. Fusti-Molnar,  W. A. Goddard III,  
 A. Golubeva-Zadorozhnaya,  S. R. Gwaltney,  G. Hawkins,  A. Heyden,  
 S. Hirata,  G. Kedziora,  F. J. Keil,  C. Kelley,  Jihan Kim,  R. A. King,  
 R. Z. Khaliullin,  P. P. Korambath,  W. Kurlancheek,  A. M. Lee,  M. S. Lee,  
 S. V. Levchenko,  Ching Yeh Lin,  D. Liotard,  R. C. Lochan,  I. Lotan,  
 P. E. Maslen,  N. Nair,  D. P. O'Neill,  D. Neuhauser,  E. Neuscamman,  
 C. M. Oana,  R. Olson,  B. Peters,  R. Peverati,  P. A. Pieniazek,  
 Y. M. Rhee,  J. Ritchie,  M. A. Rohrdanz,  E. Rosta,  N. J. Russ,  
 H. F. Schaefer III,  N. E. Schultz,  N. Shenvi,  A. C. Simmonett,  A. Sodt,  
 D. Stuck,  K. S. Thanthiriwatte,  V. Vanovschi,  Tao Wang,  A. Warshel,  
 C. F. Williams,  Q. Wu,  X. Xu,  W. Zhang

 Please cite Q-Chem as follows:
 Y. Shao et al., Mol. Phys. 113, 184-215 (2015)
 DOI: 10.1080/00268976.2014.952696

 Q-Chem 5.2.2 for Intel X86 EM64T Linux

 Parts of Q-Chem use Armadillo 9.800.1 (Horizon Scraper).
 http://arma.sourceforge.net/

 Q-Chem begins on Sun Apr 12 06:14:37 2020  

Host: cn0821
0

     Scratch files written to /tmp/ypli/6721342.srvc1/qchem176021//
Warning:  Did not find "$end" marker in "$molecule" section

Checking the input file for inconsistencies... 	...done.

--------------------------------------------------------------
User input:
--------------------------------------------------------------
$rem
   JOBTYPE  sp
   EXCHANGE   omegaB97X-D
   BASIS   6-311+G(2df,2pd)
   max_scf_cycles   250
   geom_opt_max_cycles   1500
   basis2 6-31G*
   scf_algorithm rca_diis
   SYM_IGNORE  TRUE
   print_input   true
   geom_opt_dmax   80
   pop_mulliken false
   XC_GRID 000075000302
$end

$molecule
0 1
C       1.3441055769     -0.0292919184     0.1344234358
C       0.0549000783     -0.0008113478     -0.5903497466
H       1.2316429679     -0.8404347119     0.8567878023
H       1.1380460000     0.8508373898     0.7507862508
H       2.3733020383     -0.0049548775     -0.2163730717
C       -1.1817254643     0.0337150796     0.3744640909
H       -0.2154292698     -0.8550575433     -1.2156032271
H       -0.0597508717     0.8723058590     -1.2370941150
H       -1.3454919375     -0.8941380981     0.9260151288
H       -1.8865217281     -0.0018368228     -0.4606187303
H       -1.4530774507     0.8696676575     1.0186072010
--------------------------------------------------------------
 ----------------------------------------------------------------
             Standard Nuclear Orientation (Angstroms)
    I     Atom           X                Y                Z
 ----------------------------------------------------------------
    1      C       1.3441055769    -0.0292919184     0.1344234358
    2      C       0.0549000783    -0.0008113478    -0.5903497466
    3      H       1.2316429679    -0.8404347119     0.8567878023
    4      H       1.1380460000     0.8508373898     0.7507862508
    5      H       2.3733020383    -0.0049548775    -0.2163730717
    6      C      -1.1817254643     0.0337150796     0.3744640909
    7      H      -0.2154292698    -0.8550575433    -1.2156032271
    8      H      -0.0597508717     0.8723058590    -1.2370941150
    9      H      -1.3454919375    -0.8941380981     0.9260151288
   10      H      -1.8865217281    -0.0018368228    -0.4606187303
   11      H      -1.4530774507     0.8696676575     1.0186072010
 ----------------------------------------------------------------
 Nuclear Repulsion Energy =          83.10184218 hartrees
 There are       13 alpha and       13 beta electrons
 Requested basis set is 6-311+G(2df,2pd)
 There are 72 shells and 214 basis functions

 Total QAlloc Memory Limit   2000 MB
 Mega-Array Size       188 MB
 MEM_STATIC part       192 MB

                       Distance Matrix (Angstroms)
             C (  1)   C (  2)   H (  3)   H (  4)   H (  5)   C (  6)
   C (  2)  1.479242
   H (  3)  1.091976  2.045458
   H (  4)  1.094071  1.922799  1.697174
   H (  5)  1.087610  2.348375  1.775693  1.787074
   C (  6)  2.537994  1.568853  2.611728  2.488101  3.603998
   H (  7)  2.221848  1.092592  2.527654  2.934052  2.902183  2.062028
   H (  8)  2.159804  1.092592  2.997586  2.320958  2.780504  2.135224
   H (  9)  2.934026  2.249109  2.578624  3.040330  3.990630  1.091760
   H ( 10)  3.285085  1.945752  3.487371  3.367873  4.266821  1.093328
   H ( 11)  3.068247  2.370754  3.187218  2.604996  4.114769  1.089665
             H (  7)   H (  8)   H (  9)   H ( 10)
   H (  8)  1.734498
   H (  9)  2.421796  3.074491
   H ( 10)  2.022508  2.168901  1.735416
   H ( 11)  3.081906  2.651331  1.769508  1.770735
 
 A cutoff of  1.0D-09 yielded   2539 shell pairs
 There are     22640 function pairs (     27861 Cartesian)
 Smallest overlap matrix eigenvalue = 9.08E-05

 Scale SEOQF with 1.000000e-01/1.000000e-01/1.000000e-01

 Standard Electronic Orientation quadrupole field applied
 Nucleus-field energy     =     0.0000000006 hartrees
 Requested basis set is 6-31G(d)
 There are 28 shells and 58 basis functions
 A cutoff of  1.0D-09 yielded    401 shell pairs
 There are      1772 function pairs (      1967 Cartesian)
 Smallest overlap matrix eigenvalue = 6.04E-03
 Guess from superposition of atomic densities
 Warning:  Energy on first SCF cycle will be non-variational
 SAD guess density has 26.000000 electrons
 Long-range K will be added via erf
 Coulomb attenuation parameter = 0.2 bohr**(-1)
 A restricted hybrid HF-DFT SCF calculation will be
 performed using Relaxed Constraint Minimization + Pulay DIIS
 Exchange:     0.2220 Hartree-Fock + 1.0000 wB97X-D + LR-HF
 Correlation:  1.0000 wB97X-D
 Using Euler-Maclaurin-Lebedev (75,302) quadrature formula
 Dispersion:   Grimme D
 SCF converges when DIIS error is below 1.0E-04
 using 3 threads for integral computing
 -------------------------------------------------------
 OpenMP Integral computing Module                
 Release: version 1.0, May 2013, Q-Chem Inc. Pittsburgh 
 -------------------------------------------------------
 using 3 threads for integral computing
 -------------------------------------------------------
 OpenMP Integral computing Module                
 Release: version 1.0, May 2013, Q-Chem Inc. Pittsburgh 
 -------------------------------------------------------
 ---------------------------------------
  Cycle       Energy         DIIS Error
 ---------------------------------------
    1    -119.6681768704      1.02E-01
    2    -119.0320216539      9.00E-03
    3    -119.0532259835      2.55E-03
    4    -119.0669827913      1.75E-03
    5    -119.0677365130      2.80E-04 Done RCA. Switching to DIIS
    6    -119.0682877440      2.08E-04
    7    -119.0683065008      4.99E-06 Convergence criterion met
 ---------------------------------------
 SCF time:  CPU 33.10 s  wall 11.41 s
 SCF   energy in the small basis set = -119.06830650
 Total energy in the small basis set = -119.06830650
 ----------------------------------------------------
  Cycle       Energy    
 ----------------------------------------------------
    1     -16.5438403944     -1.65E+01
 Long-range K will be added via erf
 Coulomb attenuation parameter = 0.2 bohr**(-1)
 A restricted hybrid HF-DFT SCF calculation will be
 performed using Relaxed Constraint Minimization + Pulay DIIS
 Exchange:     0.2220 Hartree-Fock + 1.0000 wB97X-D + LR-HF
 Correlation:  1.0000 wB97X-D
 Using Euler-Maclaurin-Lebedev (75,302) quadrature formula
 Dispersion:   Grimme D
 SCF converges when DIIS error is below 1.0E-05
 Basis2 calculation detected. Using small basis as guess for larger.
 SCFMinFind is unable to tell whether the solution found is close.
 Resetting ReadMinima to 0 and attempting to follow guess.
 SCFMinFind following SCF Guess.
 using 3 threads for integral computing
 -------------------------------------------------------
 OpenMP Integral computing Module                
 Release: version 1.0, May 2013, Q-Chem Inc. Pittsburgh 
 -------------------------------------------------------
 using 3 threads for integral computing
 -------------------------------------------------------
 OpenMP Integral computing Module                
 Release: version 1.0, May 2013, Q-Chem Inc. Pittsburgh 
 -------------------------------------------------------
 ---------------------------------------
  Cycle       Energy         DIIS Error
 ---------------------------------------
    1    -119.0885210272      4.21E-03
    2    -119.1105773907      6.11E-04 Done RCA. Switching to DIIS
    3    -119.1114463807      4.31E-04
    4    -119.1124622794      4.63E-05
    5    -119.1124777276      1.13E-05
    6    -119.1124785767      4.39E-06 Convergence criterion met
 ---------------------------------------
 SCF time:  CPU 99.82 s  wall 33.70 s
 SCF   energy in the final basis set = -119.11247858
 Total energy in the final basis set = -119.11247858
 
 --------------------------------------------------------------
 
                    Orbital Energies (a.u.)
 --------------------------------------------------------------
 
 Alpha MOs
 -- Occupied --
-10.2812 -10.2685 -10.2623  -0.8898  -0.7816  -0.6790  -0.5492  -0.5350
 -0.4874  -0.4617  -0.4163  -0.4045  -0.4008
 -- Virtual --
  0.0683   0.0850   0.0896   0.0986   0.1194   0.1303   0.1333   0.1410
  0.1435   0.1703   0.1721   0.1960   0.2260   0.2394   0.2472   0.2595
  0.2656   0.2813   0.2878   0.3328   0.3450   0.3489   0.4619   0.4645
  0.4716   0.4987   0.5128   0.5155   0.5483   0.5770   0.5823   0.5862
  0.5988   0.6172   0.6325   0.6698   0.6740   0.6770   0.7128   0.7193
  0.7256   0.7760   0.8139   0.8277   0.8670   0.8921   0.9362   0.9721
  0.9815   1.0095   1.0762   1.1186   1.1482   1.1760   1.1938   1.2065
  1.2300   1.2474   1.2736   1.2924   1.3000   1.3075   1.3255   1.3697
  1.3849   1.4179   1.4215   1.4453   1.4665   1.4788   1.4853   1.5226
  1.5302   1.5542   1.5925   1.6411   1.6455   1.6561   1.6570   1.6816
  1.7378   2.4084   2.4193   2.4974   2.5172   2.5464   2.5654   2.6507
  2.6673   2.6792   2.8026   2.8098   2.8814   2.8861   2.9170   2.9281
  2.9485   2.9695   2.9746   3.0350   3.0504   3.0616   3.0904   3.1175
  3.1281   3.1537   3.1759   3.1791   3.2190   3.2522   3.2769   3.2773
  3.3123   3.3309   3.3440   3.3609   3.3750   3.4027   3.4204   3.4467
  3.4636   3.4975   3.5175   3.5455   3.5513   3.5616   3.6001   3.6101
  3.6209   3.6516   3.6803   3.7252   3.7352   3.7629   3.8263   3.8424
  3.9012   3.9181   3.9487   3.9538   4.0016   4.0158   4.0458   4.0671
  4.0843   4.1144   4.1347   4.1695   4.1717   4.2068   4.2174   4.2244
  4.2757   4.2828   4.3278   4.3707   4.3827   4.4073   4.4652   4.4791
  4.4974   4.5796   4.6125   4.6348   4.6704   4.8055   4.8187   4.8538
  4.9021   4.9221   4.9523   4.9901   5.0135   5.0575   5.0997   5.1485
  5.1830   5.2123   5.2521   5.2643   5.3071   5.3247   5.3498   5.3727
  5.3856   5.3964   5.5145   5.5314   5.5801   5.6580   5.7943   5.8172
  6.0435   6.4107   6.4148   6.4309   6.4785   6.4999  25.1937  25.4079
 25.4698
 --------------------------------------------------------------
 
 -----------------------------------------------------------------
                    Cartesian Multipole Moments
 -----------------------------------------------------------------
    Charge (ESU x 10^10)
                -0.0000
    Dipole Moment (Debye)
         X      -0.1067      Y       0.0244      Z      -0.0737
       Tot       0.1320
    Quadrupole Moments (Debye-Ang)
        XX     -22.0316     XY      -0.0114     YY     -21.5651
        XZ      -0.0954     YZ      -0.0412     ZZ     -21.9754
    Octopole Moments (Debye-Ang^2)
       XXX       0.7718    XXY      -0.0000    XYY      -1.7749
       YYY      -0.0240    XXZ      -0.8144    XYZ      -0.4519
       YYZ       0.4719    XZZ      -2.3361    YZZ       0.0955
       ZZZ      -0.1165
    Hexadecapole Moments (Debye-Ang^3)
      XXXX    -198.0762   XXXY       0.5816   XXYY     -42.0554
      XYYY       1.3124   YYYY     -44.0263   XXXZ       2.8722
      XXYZ       0.2350   XYYZ       0.9661   YYYZ      -0.1567
      XXZZ     -45.1338   XYZZ       0.0464   YYZZ     -17.3916
      XZZZ       4.5231   YZZZ      -0.1061   ZZZZ     -72.6990
 -----------------------------------------------------------------
Archival summary:
1\1\cn0821\SP\ProcedureUnspecified\BasisUnspecified\38\r0852400\SunApr1206:15:272020SunApr1206:15:272020\0\\#,ProcedureUnspecified,BasisUnspecified,\\0,1\C\H,1,1.09259\H,1,1.09259,2,105.075\C,1,1.47924,2,118.749,3,-128.066,0\H,4,1.08761,1,131.779,2,67.1958,0\H,4,1.09198,1,104.398,2,-65.8602,0\H,4,1.09407,1,95.5316,2,-169.629,0\C,1,1.56885,2,100.027,3,108.965,0\H,8,1.08966,1,125.22,2,-164.731,0\H,8,1.09176,1,114.219,2,57.3956,0\H,8,1.09333,1,92.1598,2,-50.299,0\\\@

 Total job time:  49.43s(wall), 138.14s(cpu) 
 Sun Apr 12 06:15:27 2020

        *************************************************************
        *                                                           *
        *  Thank you very much for using Q-Chem.  Have a nice day.  *
        *                                                           *
        *************************************************************


