                  Welcome to Q-Chem
     A Quantum Leap Into The Future Of Chemistry


 Q-Chem 5.2 (devel), Q-Chem, Inc., Pleasanton, CA (2019)

 Yihan Shao,  Zhengting Gan,  E. Epifanovsky,  A. T. B. Gilbert,  M. Wormit,  
 J. Kussmann,  A. W. Lange,  A. Behn,  Jia Deng,  Xintian Feng,  D. Ghosh,  
 M. Goldey,  P. R. Horn,  L. D. Jacobson,  I. Kaliman,  T. Kus,  A. Landau,  
 Jie Liu,  E. I. Proynov,  R. M. Richard,  R. P. Steele,  E. J. Sundstrom,  
 H. L. Woodcock III,  P. M. Zimmerman,  D. Zuev,  B. Alam,  B. Albrecht,  
 E. Alguire,  S. A. Baeppler,  D. Barton,  Z. Benda,  Y. A. Bernard,  
 E. J. Berquist,  K. B. Bravaya,  H. Burton,  K. Carter-Fenk,  D. Casanova,  
 Chun-Min Chang,  Yunqing Chen,  A. Chien,  K. D. Closser,  M. P. Coons,  
 S. Coriani,  S. Dasgupta,  A. L. Dempwolff,  M. Diedenhofen,  Hainam Do,  
 R. G. Edgar,  Po-Tung Fang,  S. Faraji,  S. Fatehi,  Qingguo Feng,  
 J. Fosso-Tande,  J. Gayvert,  Qinghui Ge,  A. Ghysels,  G. Gidofalvi,  
 J. Gomes,  J. Gonthier,  A. Gunina,  D. Hait,  M. W. D. Hanson-Heine,  
 P. H. P. Harbach,  A. W. Hauser,  M. F. Herbst,  J. E. Herr,  
 E. G. Hohenstein,  Z. C. Holden,  Kerwin Hui,  B. C. Huynh,  T.-C. Jagau,  
 Hyunjun Ji,  B. Kaduk,  K. Khistyaev,  Jaehoon Kim,  P. Klunzinger,  K. Koh,  
 D. Kosenkov,  L. Koulias,  T. Kowalczyk,  C. M. Krauter,  A. Kunitsa,  
 Ka Un Lao,  A. Laurent,  K. V. Lawler,  Joonho Lee,  D. Lefrancois,  
 S. Lehtola,  D. S. Levine,  Yi-Pei Li,  You-Sheng Lin,  Fenglai Liu,  
 Kuan-Yu Liu,  E. Livshits,  M. Loipersberger,  A. Luenser,  P. Manohar,  
 E. Mansoor,  S. F. Manzer,  Shan-Ping Mao,  Yuezhi Mao,  N. Mardirossian,  
 A. V. Marenich,  T. Markovich,  L. A. Martinez-Martinez,  S. A. Maurer,  
 N. J. Mayhall,  S. C. McKenzie,  J.-M. Mewes,  P. Morgante,  A. F. Morrison,  
 J. W. Mullinax,  K. Nanda,  T. S. Nguyen-Beck,  R. Olivares-Amaya,  
 J. A. Parkhill,  S. K. Paul,  Zheng Pei,  T. M. Perrine,  F. Plasser,  
 P. Pokhilko,  S. Prager,  A. Prociuk,  E. Ramos,  B. Rana,  D. R. Rehn,  
 F. Rob,  M. Scheurer,  M. Schneider,  N. Sergueev,  S. M. Sharada,  
 S. Sharma,  D. W. Small,  T. Stauch,  C. J. Stein,  T. Stein,  Yu-Chuan Su,  
 S. P. Veccham,  A. J. W. Thom,  A. Tkatchenko,  T. Tsuchimochi,  
 N. M. Tubman,  L. Vogt,  M. L. Vidal,  O. Vydrov,  M. A. Watson,  J. Wenzel,  
 M. de Wergifosse,  T. A. Wesolowski,  A. White,  J. Witte,  A. Yamada,  
 Jun Yang,  K. Yao,  S. Yeganeh,  S. R. Yost,  Zhi-Qiang You,  A. Zech,  
 Igor Ying Zhang,  Xing Zhang,  Yan Zhao,  Ying Zhu,  B. R. Brooks,  
 G. K. L. Chan,  C. J. Cramer,  M. S. Gordon,  W. J. Hehre,  A. Klamt,  
 M. W. Schmidt,  C. D. Sherrill,  D. G. Truhlar,  A. Aspuru-Guzik,  R. Baer,  
 A. T. Bell,  N. A. Besley,  Jeng-Da Chai,  A. E. DePrince, III,  
 R. A. DiStasio Jr.,  A. Dreuw,  B. D. Dunietz,  T. R. Furlani,  
 Chao-Ping Hsu,  Yousung Jung,  Jing Kong,  D. S. Lambrecht,  WanZhen Liang,  
 C. Ochsenfeld,  V. A. Rassolov,  L. V. Slipchenko,  J. E. Subotnik,  
 T. Van Voorhis,  J. M. Herbert,  A. I. Krylov,  P. M. W. Gill,  M. Head-Gordon

 Contributors to earlier versions of Q-Chem not listed above: 
 R. D. Adamson,  B. Austin,  J. Baker,  G. J. O. Beran,  K. Brandhorst,  
 S. T. Brown,  E. F. C. Byrd,  A. K. Chakraborty,  C.-L. Cheng,  
 Siu Hung Chien,  D. M. Chipman,  D. L. Crittenden,  H. Dachsel,  
 R. J. Doerksen,  A. D. Dutoi,  L. Fusti-Molnar,  W. A. Goddard III,  
 A. Golubeva-Zadorozhnaya,  S. R. Gwaltney,  G. Hawkins,  A. Heyden,  
 S. Hirata,  G. Kedziora,  F. J. Keil,  C. Kelley,  Jihan Kim,  R. A. King,  
 R. Z. Khaliullin,  P. P. Korambath,  W. Kurlancheek,  A. M. Lee,  M. S. Lee,  
 S. V. Levchenko,  Ching Yeh Lin,  D. Liotard,  R. C. Lochan,  I. Lotan,  
 P. E. Maslen,  N. Nair,  D. P. O'Neill,  D. Neuhauser,  E. Neuscamman,  
 C. M. Oana,  R. Olson,  B. Peters,  R. Peverati,  P. A. Pieniazek,  
 Y. M. Rhee,  J. Ritchie,  M. A. Rohrdanz,  E. Rosta,  N. J. Russ,  
 H. F. Schaefer III,  N. E. Schultz,  N. Shenvi,  A. C. Simmonett,  A. Sodt,  
 D. Stuck,  K. S. Thanthiriwatte,  V. Vanovschi,  Tao Wang,  A. Warshel,  
 C. F. Williams,  Q. Wu,  X. Xu,  W. Zhang

 Please cite Q-Chem as follows:
 Y. Shao et al., Mol. Phys. 113, 184-215 (2015)
 DOI: 10.1080/00268976.2014.952696

 Q-Chem 5.2.2 for Intel X86 EM64T Linux

 Parts of Q-Chem use Armadillo 9.800.1 (Horizon Scraper).
 http://arma.sourceforge.net/

 Q-Chem begins on Sun Apr 12 08:18:17 2020  

Host: cn0821
0

     Scratch files written to /tmp/ypli/6721342.srvc1/qchem194954//
Warning:  Did not find "$end" marker in "$molecule" section

Checking the input file for inconsistencies... 	...done.

--------------------------------------------------------------
User input:
--------------------------------------------------------------
$rem
   JOBTYPE  sp
   EXCHANGE   omegaB97X-D
   BASIS   6-311+G(2df,2pd)
   max_scf_cycles   250
   geom_opt_max_cycles   1500
   basis2 6-31G*
   scf_algorithm rca_diis
   SYM_IGNORE  TRUE
   print_input   true
   geom_opt_dmax   80
   pop_mulliken false
   XC_GRID 000075000302
$end

$molecule
0 1
C       1.2655842923     0.0479167221     0.2606136920
C       -0.0002363439     0.0000040175     -0.5867857095
H       1.3293403510     -0.9691448549     0.9915185678
H       1.2831067304     0.7906727254     0.8140043494
H       2.1664343850     0.0531667888     -0.3607585244
C       -1.2670087114     -0.0479360233     0.2592329160
H       0.0185610904     -0.8736853315     -1.2425876755
H       -0.0185967185     0.8737023238     -1.2425797008
H       -1.2848012233     -0.7933505986     0.8144964406
H       -2.1611784887     -0.0531498562     -0.3580544497
H       -1.3312054238     0.9718047530     0.9919451129
--------------------------------------------------------------
 ----------------------------------------------------------------
             Standard Nuclear Orientation (Angstroms)
    I     Atom           X                Y                Z
 ----------------------------------------------------------------
    1      C       1.2655842923     0.0479167221     0.2606136920
    2      C      -0.0002363439     0.0000040175    -0.5867857095
    3      H       1.3293403510    -0.9691448549     0.9915185678
    4      H       1.2831067304     0.7906727254     0.8140043494
    5      H       2.1664343850     0.0531667888    -0.3607585244
    6      C      -1.2670087114    -0.0479360233     0.2592329160
    7      H       0.0185610904    -0.8736853315    -1.2425876755
    8      H      -0.0185967185     0.8737023238    -1.2425797008
    9      H      -1.2848012233    -0.7933505986     0.8144964406
   10      H      -2.1611784887    -0.0531498562    -0.3580544497
   11      H      -1.3312054238     0.9718047530     0.9919451129
 ----------------------------------------------------------------
 Nuclear Repulsion Energy =          83.00845675 hartrees
 There are       13 alpha and       13 beta electrons
 Requested basis set is 6-311+G(2df,2pd)
 There are 72 shells and 214 basis functions

 Total QAlloc Memory Limit   2000 MB
 Mega-Array Size       188 MB
 MEM_STATIC part       192 MB

                       Distance Matrix (Angstroms)
             C (  1)   C (  2)   H (  3)   H (  4)   H (  5)   C (  6)
   C (  2)  1.524035
   H (  3)  1.254074  2.279927
   H (  4)  0.926410  2.057751  1.769352
   H (  5)  1.094377  2.179077  1.890635  1.644461
   C (  6)  2.534407  1.524060  2.850596  2.741190  3.490436
   H (  7)  2.159637  1.092594  2.592004  2.932360  2.500007  2.142432
   H (  8)  2.142576  1.092589  3.194404  2.435336  2.495045  2.159489
   H (  9)  2.742076  2.059881  2.626019  3.017164  3.742839  0.929665
   H ( 10)  3.483629  2.173664  3.852806  3.734817  4.328919  1.086559
   H ( 11)  2.851619  2.282163  3.293295  2.626614  3.860983  1.257322
             H (  7)   H (  8)   H (  9)   H ( 10)
   H (  8)  1.747783
   H (  9)  2.436555  2.934945
   H ( 10)  2.491374  2.496417  1.640369
   H ( 11)  3.197005  2.593389  1.774659  1.887296
 
 A cutoff of  1.0D-09 yielded   2533 shell pairs
 There are     22559 function pairs (     27734 Cartesian)
 Smallest overlap matrix eigenvalue = 8.69E-05

 Scale SEOQF with 1.000000e-01/1.000000e-01/1.000000e-01

 Standard Electronic Orientation quadrupole field applied
 Nucleus-field energy     =     0.0000000006 hartrees
 Requested basis set is 6-31G(d)
 There are 28 shells and 58 basis functions
 A cutoff of  1.0D-09 yielded    402 shell pairs
 There are      1773 function pairs (      1968 Cartesian)
 Smallest overlap matrix eigenvalue = 6.74E-03
 Guess from superposition of atomic densities
 Warning:  Energy on first SCF cycle will be non-variational
 SAD guess density has 26.000000 electrons
 Long-range K will be added via erf
 Coulomb attenuation parameter = 0.2 bohr**(-1)
 A restricted hybrid HF-DFT SCF calculation will be
 performed using Relaxed Constraint Minimization + Pulay DIIS
 Exchange:     0.2220 Hartree-Fock + 1.0000 wB97X-D + LR-HF
 Correlation:  1.0000 wB97X-D
 Using Euler-Maclaurin-Lebedev (75,302) quadrature formula
 Dispersion:   Grimme D
 SCF converges when DIIS error is below 1.0E-04
 using 3 threads for integral computing
 -------------------------------------------------------
 OpenMP Integral computing Module                
 Release: version 1.0, May 2013, Q-Chem Inc. Pittsburgh 
 -------------------------------------------------------
 using 3 threads for integral computing
 -------------------------------------------------------
 OpenMP Integral computing Module                
 Release: version 1.0, May 2013, Q-Chem Inc. Pittsburgh 
 -------------------------------------------------------
 ---------------------------------------
  Cycle       Energy         DIIS Error
 ---------------------------------------
    1    -119.6072026192      1.03E-01
    2    -118.9897019898      9.61E-03
    3    -119.0142119438      2.63E-03
    4    -119.0305786388      1.78E-03
    5    -119.0313678264      2.87E-04 Done RCA. Switching to DIIS
    6    -119.0319501319      2.08E-04
    7    -119.0319693244      5.96E-06 Convergence criterion met
 ---------------------------------------
 SCF time:  CPU 31.65 s  wall 10.90 s
 SCF   energy in the small basis set = -119.03196932
 Total energy in the small basis set = -119.03196932
 ----------------------------------------------------
  Cycle       Energy    
 ----------------------------------------------------
    1     -16.5658696889     -1.66E+01
 Long-range K will be added via erf
 Coulomb attenuation parameter = 0.2 bohr**(-1)
 A restricted hybrid HF-DFT SCF calculation will be
 performed using Relaxed Constraint Minimization + Pulay DIIS
 Exchange:     0.2220 Hartree-Fock + 1.0000 wB97X-D + LR-HF
 Correlation:  1.0000 wB97X-D
 Using Euler-Maclaurin-Lebedev (75,302) quadrature formula
 Dispersion:   Grimme D
 SCF converges when DIIS error is below 1.0E-05
 Basis2 calculation detected. Using small basis as guess for larger.
 SCFMinFind is unable to tell whether the solution found is close.
 Resetting ReadMinima to 0 and attempting to follow guess.
 SCFMinFind following SCF Guess.
 using 3 threads for integral computing
 -------------------------------------------------------
 OpenMP Integral computing Module                
 Release: version 1.0, May 2013, Q-Chem Inc. Pittsburgh 
 -------------------------------------------------------
 using 3 threads for integral computing
 -------------------------------------------------------
 OpenMP Integral computing Module                
 Release: version 1.0, May 2013, Q-Chem Inc. Pittsburgh 
 -------------------------------------------------------
 ---------------------------------------
  Cycle       Energy         DIIS Error
 ---------------------------------------
    1    -119.0542397375      4.21E-03
    2    -119.0761561006      5.78E-04 Done RCA. Switching to DIIS
    3    -119.0769371332      4.05E-04
    4    -119.0778412658      4.55E-05
    5    -119.0778561432      9.00E-06 Convergence criterion met
 ---------------------------------------
 SCF time:  CPU 81.88 s  wall 27.67 s
 SCF   energy in the final basis set = -119.07785614
 Total energy in the final basis set = -119.07785614
 
 --------------------------------------------------------------
 
                    Orbital Energies (a.u.)
 --------------------------------------------------------------
 
 Alpha MOs
 -- Occupied --
-10.2759 -10.2636 -10.2635  -0.8856  -0.7868  -0.6862  -0.5507  -0.5262
 -0.4858  -0.4688  -0.4204  -0.4123  -0.4026
 -- Virtual --
  0.0680   0.0853   0.0903   0.0980   0.1240   0.1297   0.1339   0.1400
  0.1426   0.1693   0.1704   0.1877   0.2180   0.2222   0.2458   0.2633
  0.2843   0.2982   0.3104   0.3153   0.3340   0.3529   0.4496   0.4706
  0.4775   0.5043   0.5095   0.5233   0.5463   0.5556   0.5803   0.5808
  0.6173   0.6241   0.6374   0.6444   0.6484   0.6660   0.7248   0.7425
  0.7566   0.7650   0.8191   0.8657   0.8663   0.8787   0.8859   0.9563
  0.9938   1.0527   1.0591   1.1336   1.1378   1.1676   1.1878   1.2152
  1.2224   1.2357   1.2638   1.2698   1.2976   1.3028   1.3197   1.3684
  1.3753   1.3856   1.4054   1.4347   1.4356   1.4644   1.4740   1.4867
  1.5408   1.5795   1.5882   1.6113   1.6615   1.6683   1.6940   1.7523
  1.7908   2.3103   2.4051   2.4714   2.5090   2.5477   2.5956   2.6198
  2.6545   2.7488   2.8127   2.8247   2.8354   2.8614   2.9075   2.9168
  2.9225   2.9430   2.9833   3.0241   3.0289   3.0693   3.0755   3.1057
  3.1411   3.1506   3.1892   3.1922   3.2124   3.2250   3.2587   3.2806
  3.2867   3.3201   3.3406   3.3535   3.3543   3.3709   3.4104   3.4447
  3.4538   3.4607   3.4843   3.5031   3.5137   3.5545   3.6108   3.6260
  3.6280   3.6538   3.6883   3.7281   3.7447   3.7845   3.8676   3.8753
  3.8857   3.9139   3.9330   3.9621   3.9899   3.9996   4.0550   4.0601
  4.0732   4.0897   4.0999   4.1496   4.1596   4.1677   4.1952   4.2109
  4.2160   4.2738   4.3004   4.3271   4.3632   4.4126   4.4236   4.4313
  4.4521   4.5109   4.5662   4.6009   4.6216   4.7472   4.8112   4.8545
  4.8591   4.8791   4.8951   4.9905   5.0057   5.0215   5.0667   5.1078
  5.1452   5.2168   5.2362   5.2693   5.3389   5.3690   5.4405   5.4809
  5.5050   5.6003   5.6745   5.7132   5.7195   5.7393   5.8092   5.9093
  5.9417   6.1924   6.2130   6.4566   6.6357   6.6762  25.1956  25.3514
 25.3608
 --------------------------------------------------------------
 
 -----------------------------------------------------------------
                    Cartesian Multipole Moments
 -----------------------------------------------------------------
    Charge (ESU x 10^10)
                -0.0000
    Dipole Moment (Debye)
         X      -0.0048      Y      -0.0025      Z      -0.1868
       Tot       0.1869
    Quadrupole Moments (Debye-Ang)
        XX     -22.1723     XY       0.6051     YY     -21.3577
        XZ       0.0072     YZ      -0.0013     ZZ     -21.9134
    Octopole Moments (Debye-Ang^2)
       XXX      -0.0257    XXY      -0.0105    XYY      -0.0044
       YYY      -0.0075    XXZ      -1.8220    XYZ       0.1766
       YYZ       0.3738    XZZ       0.0083    YZZ      -0.0034
       ZZZ      -0.8051
    Hexadecapole Moments (Debye-Ang^3)
      XXXX    -202.3276   XXXY       3.0786   XXYY     -42.3886
      XYYY       1.1428   YYYY     -44.8112   XXXZ       0.0369
      XXYZ      -0.0055   XYYZ       0.0139   YYYZ      -0.0059
      XXZZ     -45.6545   XYZZ       0.3283   YYZZ     -17.2721
      XZZZ       0.0558   YZZZ      -0.0071   ZZZZ     -73.0424
 -----------------------------------------------------------------
Archival summary:
1\1\cn0821\SP\ProcedureUnspecified\BasisUnspecified\38\r0852400\SunApr1208:19:002020SunApr1208:19:002020\0\\#,ProcedureUnspecified,BasisUnspecified,\\0,1\C\H,1,1.09259\H,1,1.09259,2,106.228\C,1,1.52404,2,108.817,3,118.577,0\H,4,0.92641,1,111.904,2,62.714,0\H,4,1.09438,1,111.601,2,-59.2825,0\H,4,1.25407,1,109.925,2,-177.882,0\C,1,1.52406,2,110.144,3,-117.668,0\H,8,0.929665,1,111.881,2,178.794,0\H,8,1.08656,1,111.642,2,56.7878,0\H,8,1.25732,1,109.902,2,-61.821,0\\\@

 Total job time:  42.82s(wall), 118.72s(cpu) 
 Sun Apr 12 08:19:00 2020

        *************************************************************
        *                                                           *
        *  Thank you very much for using Q-Chem.  Have a nice day.  *
        *                                                           *
        *************************************************************


