                  Welcome to Q-Chem
     A Quantum Leap Into The Future Of Chemistry


 Q-Chem 5.2 (devel), Q-Chem, Inc., Pleasanton, CA (2019)

 Yihan Shao,  Zhengting Gan,  E. Epifanovsky,  A. T. B. Gilbert,  M. Wormit,  
 J. Kussmann,  A. W. Lange,  A. Behn,  Jia Deng,  Xintian Feng,  D. Ghosh,  
 M. Goldey,  P. R. Horn,  L. D. Jacobson,  I. Kaliman,  T. Kus,  A. Landau,  
 Jie Liu,  E. I. Proynov,  R. M. Richard,  R. P. Steele,  E. J. Sundstrom,  
 H. L. Woodcock III,  P. M. Zimmerman,  D. Zuev,  B. Alam,  B. Albrecht,  
 E. Alguire,  S. A. Baeppler,  D. Barton,  Z. Benda,  Y. A. Bernard,  
 E. J. Berquist,  K. B. Bravaya,  H. Burton,  K. Carter-Fenk,  D. Casanova,  
 Chun-Min Chang,  Yunqing Chen,  A. Chien,  K. D. Closser,  M. P. Coons,  
 S. Coriani,  S. Dasgupta,  A. L. Dempwolff,  M. Diedenhofen,  Hainam Do,  
 R. G. Edgar,  Po-Tung Fang,  S. Faraji,  S. Fatehi,  Qingguo Feng,  
 J. Fosso-Tande,  J. Gayvert,  Qinghui Ge,  A. Ghysels,  G. Gidofalvi,  
 J. Gomes,  J. Gonthier,  A. Gunina,  D. Hait,  M. W. D. Hanson-Heine,  
 P. H. P. Harbach,  A. W. Hauser,  M. F. Herbst,  J. E. Herr,  
 E. G. Hohenstein,  Z. C. Holden,  Kerwin Hui,  B. C. Huynh,  T.-C. Jagau,  
 Hyunjun Ji,  B. Kaduk,  K. Khistyaev,  Jaehoon Kim,  P. Klunzinger,  K. Koh,  
 D. Kosenkov,  L. Koulias,  T. Kowalczyk,  C. M. Krauter,  A. Kunitsa,  
 Ka Un Lao,  A. Laurent,  K. V. Lawler,  Joonho Lee,  D. Lefrancois,  
 S. Lehtola,  D. S. Levine,  Yi-Pei Li,  You-Sheng Lin,  Fenglai Liu,  
 Kuan-Yu Liu,  E. Livshits,  M. Loipersberger,  A. Luenser,  P. Manohar,  
 E. Mansoor,  S. F. Manzer,  Shan-Ping Mao,  Yuezhi Mao,  N. Mardirossian,  
 A. V. Marenich,  T. Markovich,  L. A. Martinez-Martinez,  S. A. Maurer,  
 N. J. Mayhall,  S. C. McKenzie,  J.-M. Mewes,  P. Morgante,  A. F. Morrison,  
 J. W. Mullinax,  K. Nanda,  T. S. Nguyen-Beck,  R. Olivares-Amaya,  
 J. A. Parkhill,  S. K. Paul,  Zheng Pei,  T. M. Perrine,  F. Plasser,  
 P. Pokhilko,  S. Prager,  A. Prociuk,  E. Ramos,  B. Rana,  D. R. Rehn,  
 F. Rob,  M. Scheurer,  M. Schneider,  N. Sergueev,  S. M. Sharada,  
 S. Sharma,  D. W. Small,  T. Stauch,  C. J. Stein,  T. Stein,  Yu-Chuan Su,  
 S. P. Veccham,  A. J. W. Thom,  A. Tkatchenko,  T. Tsuchimochi,  
 N. M. Tubman,  L. Vogt,  M. L. Vidal,  O. Vydrov,  M. A. Watson,  J. Wenzel,  
 M. de Wergifosse,  T. A. Wesolowski,  A. White,  J. Witte,  A. Yamada,  
 Jun Yang,  K. Yao,  S. Yeganeh,  S. R. Yost,  Zhi-Qiang You,  A. Zech,  
 Igor Ying Zhang,  Xing Zhang,  Yan Zhao,  Ying Zhu,  B. R. Brooks,  
 G. K. L. Chan,  C. J. Cramer,  M. S. Gordon,  W. J. Hehre,  A. Klamt,  
 M. W. Schmidt,  C. D. Sherrill,  D. G. Truhlar,  A. Aspuru-Guzik,  R. Baer,  
 A. T. Bell,  N. A. Besley,  Jeng-Da Chai,  A. E. DePrince, III,  
 R. A. DiStasio Jr.,  A. Dreuw,  B. D. Dunietz,  T. R. Furlani,  
 Chao-Ping Hsu,  Yousung Jung,  Jing Kong,  D. S. Lambrecht,  WanZhen Liang,  
 C. Ochsenfeld,  V. A. Rassolov,  L. V. Slipchenko,  J. E. Subotnik,  
 T. Van Voorhis,  J. M. Herbert,  A. I. Krylov,  P. M. W. Gill,  M. Head-Gordon

 Contributors to earlier versions of Q-Chem not listed above: 
 R. D. Adamson,  B. Austin,  J. Baker,  G. J. O. Beran,  K. Brandhorst,  
 S. T. Brown,  E. F. C. Byrd,  A. K. Chakraborty,  C.-L. Cheng,  
 Siu Hung Chien,  D. M. Chipman,  D. L. Crittenden,  H. Dachsel,  
 R. J. Doerksen,  A. D. Dutoi,  L. Fusti-Molnar,  W. A. Goddard III,  
 A. Golubeva-Zadorozhnaya,  S. R. Gwaltney,  G. Hawkins,  A. Heyden,  
 S. Hirata,  G. Kedziora,  F. J. Keil,  C. Kelley,  Jihan Kim,  R. A. King,  
 R. Z. Khaliullin,  P. P. Korambath,  W. Kurlancheek,  A. M. Lee,  M. S. Lee,  
 S. V. Levchenko,  Ching Yeh Lin,  D. Liotard,  R. C. Lochan,  I. Lotan,  
 P. E. Maslen,  N. Nair,  D. P. O'Neill,  D. Neuhauser,  E. Neuscamman,  
 C. M. Oana,  R. Olson,  B. Peters,  R. Peverati,  P. A. Pieniazek,  
 Y. M. Rhee,  J. Ritchie,  M. A. Rohrdanz,  E. Rosta,  N. J. Russ,  
 H. F. Schaefer III,  N. E. Schultz,  N. Shenvi,  A. C. Simmonett,  A. Sodt,  
 D. Stuck,  K. S. Thanthiriwatte,  V. Vanovschi,  Tao Wang,  A. Warshel,  
 C. F. Williams,  Q. Wu,  X. Xu,  W. Zhang

 Please cite Q-Chem as follows:
 Y. Shao et al., Mol. Phys. 113, 184-215 (2015)
 DOI: 10.1080/00268976.2014.952696

 Q-Chem 5.2.2 for Intel X86 EM64T Linux

 Parts of Q-Chem use Armadillo 9.800.1 (Horizon Scraper).
 http://arma.sourceforge.net/

 Q-Chem begins on Sun Apr 12 05:49:31 2020  

Host: cn0821
0

     Scratch files written to /tmp/ypli/6721342.srvc1/qchem172251//
Warning:  Did not find "$end" marker in "$molecule" section

Checking the input file for inconsistencies... 	...done.

--------------------------------------------------------------
User input:
--------------------------------------------------------------
$rem
   JOBTYPE  sp
   EXCHANGE   omegaB97X-D
   BASIS   6-311+G(2df,2pd)
   max_scf_cycles   250
   geom_opt_max_cycles   1500
   basis2 6-31G*
   scf_algorithm rca_diis
   SYM_IGNORE  TRUE
   print_input   true
   geom_opt_dmax   80
   pop_mulliken false
   XC_GRID 000075000302
$end

$molecule
0 1
C       1.2929859835     0.0011663415     0.2589603156
C       -0.0000000166     0.0006734429     -0.6205545049
H       1.3037389096     -0.8782870307     0.9065479508
H       1.3061856937     0.8783488865     0.9093465246
H       2.2184065040     -0.0011063478     -0.3184031219
C       -1.2929860953     0.0011663375     0.2589601736
H       0.0000002544     -0.8748127924     -1.2741240434
H       -0.0000000855     0.8738954611     -1.2771796932
H       -1.3037388603     -0.8782868504     0.9065480419
H       -2.2184067916     -0.0011057146     -0.3184029698
H       -1.3061855565     0.8783489323     0.9093463457
--------------------------------------------------------------
 ----------------------------------------------------------------
             Standard Nuclear Orientation (Angstroms)
    I     Atom           X                Y                Z
 ----------------------------------------------------------------
    1      C       1.2929859835     0.0011663415     0.2589603156
    2      C      -0.0000000166     0.0006734429    -0.6205545049
    3      H       1.3037389096    -0.8782870307     0.9065479508
    4      H       1.3061856937     0.8783488865     0.9093465246
    5      H       2.2184065040    -0.0011063478    -0.3184031219
    6      C      -1.2929860953     0.0011663375     0.2589601736
    7      H       0.0000002544    -0.8748127924    -1.2741240434
    8      H      -0.0000000855     0.8738954611    -1.2771796932
    9      H      -1.3037388603    -0.8782868504     0.9065480419
   10      H      -2.2184067916    -0.0011057146    -0.3184029698
   11      H      -1.3061855565     0.8783489323     0.9093463457
 ----------------------------------------------------------------
 Nuclear Repulsion Energy =          81.57016457 hartrees
 There are       13 alpha and       13 beta electrons
 Requested basis set is 6-311+G(2df,2pd)
 There are 72 shells and 214 basis functions

 Total QAlloc Memory Limit   2000 MB
 Mega-Array Size       188 MB
 MEM_STATIC part       192 MB

                       Distance Matrix (Angstroms)
             C (  1)   C (  2)   H (  3)   H (  4)   H (  5)   C (  6)
   C (  2)  1.563764
   H (  3)  1.092210  2.191882
   H (  4)  1.092074  2.194774  1.756640
   H (  5)  1.090760  2.238889  1.762546  1.764358
   C (  6)  2.585972  1.563764  2.817053  2.819246  3.558543
   H (  7)  2.188492  1.092533  2.540684  3.089861  2.568675  2.188493
   H (  8)  2.189337  1.092554  3.088454  2.546966  2.570255  2.189337
   H (  9)  2.817053  2.191882  2.607478  3.146027  3.830856  1.092210
   H ( 10)  3.558544  2.238890  3.830857  3.834522  4.436813  1.090760
   H ( 11)  2.819245  2.194774  3.146027  2.612371  3.834522  1.092074
             H (  7)   H (  8)   H (  9)   H ( 10)
   H (  8)  1.748711
   H (  9)  2.540685  3.088453
   H ( 10)  2.568676  2.570254  1.762546
   H ( 11)  3.089861  2.546966  1.756640  1.764357
 
 A cutoff of  1.0D-09 yielded   2528 shell pairs
 There are     22554 function pairs (     27735 Cartesian)
 Smallest overlap matrix eigenvalue = 1.02E-04

 Scale SEOQF with 1.000000e-01/1.000000e-01/1.000000e-01

 Standard Electronic Orientation quadrupole field applied
 Nucleus-field energy     =     0.0000000006 hartrees
 Requested basis set is 6-31G(d)
 There are 28 shells and 58 basis functions
 A cutoff of  1.0D-09 yielded    402 shell pairs
 There are      1773 function pairs (      1968 Cartesian)
 Smallest overlap matrix eigenvalue = 7.65E-03
 Guess from superposition of atomic densities
 Warning:  Energy on first SCF cycle will be non-variational
 SAD guess density has 26.000000 electrons
 Long-range K will be added via erf
 Coulomb attenuation parameter = 0.2 bohr**(-1)
 A restricted hybrid HF-DFT SCF calculation will be
 performed using Relaxed Constraint Minimization + Pulay DIIS
 Exchange:     0.2220 Hartree-Fock + 1.0000 wB97X-D + LR-HF
 Correlation:  1.0000 wB97X-D
 Using Euler-Maclaurin-Lebedev (75,302) quadrature formula
 Dispersion:   Grimme D
 SCF converges when DIIS error is below 1.0E-04
 using 3 threads for integral computing
 -------------------------------------------------------
 OpenMP Integral computing Module                
 Release: version 1.0, May 2013, Q-Chem Inc. Pittsburgh 
 -------------------------------------------------------
 using 3 threads for integral computing
 -------------------------------------------------------
 OpenMP Integral computing Module                
 Release: version 1.0, May 2013, Q-Chem Inc. Pittsburgh 
 -------------------------------------------------------
 ---------------------------------------
  Cycle       Energy         DIIS Error
 ---------------------------------------
    1    -119.5110459696      9.70E-02
    2    -119.0686401221      8.58E-03
    3    -119.0880644992      2.48E-03
    4    -119.1003477813      1.69E-03
    5    -119.1010601130      2.85E-04 Done RCA. Switching to DIIS
    6    -119.1015668537      2.08E-04
    7    -119.1015856983      4.70E-06 Convergence criterion met
 ---------------------------------------
 SCF time:  CPU 32.19 s  wall 11.08 s
 SCF   energy in the small basis set = -119.10158570
 Total energy in the small basis set = -119.10158570
 ----------------------------------------------------
  Cycle       Energy    
 ----------------------------------------------------
    1     -16.5070592443     -1.65E+01
 Long-range K will be added via erf
 Coulomb attenuation parameter = 0.2 bohr**(-1)
 A restricted hybrid HF-DFT SCF calculation will be
 performed using Relaxed Constraint Minimization + Pulay DIIS
 Exchange:     0.2220 Hartree-Fock + 1.0000 wB97X-D + LR-HF
 Correlation:  1.0000 wB97X-D
 Using Euler-Maclaurin-Lebedev (75,302) quadrature formula
 Dispersion:   Grimme D
 SCF converges when DIIS error is below 1.0E-05
 Basis2 calculation detected. Using small basis as guess for larger.
 SCFMinFind is unable to tell whether the solution found is close.
 Resetting ReadMinima to 0 and attempting to follow guess.
 SCFMinFind following SCF Guess.
 using 3 threads for integral computing
 -------------------------------------------------------
 OpenMP Integral computing Module                
 Release: version 1.0, May 2013, Q-Chem Inc. Pittsburgh 
 -------------------------------------------------------
 using 3 threads for integral computing
 -------------------------------------------------------
 OpenMP Integral computing Module                
 Release: version 1.0, May 2013, Q-Chem Inc. Pittsburgh 
 -------------------------------------------------------
 ---------------------------------------
  Cycle       Energy         DIIS Error
 ---------------------------------------
    1    -119.1203283641      4.21E-03
    2    -119.1423911827      5.93E-04 Done RCA. Switching to DIIS
    3    -119.1432369039      4.10E-04
    4    -119.1441617967      4.47E-05
    5    -119.1441760944      9.97E-06 Convergence criterion met
 ---------------------------------------
 SCF time:  CPU 81.95 s  wall 27.74 s
 SCF   energy in the final basis set = -119.14417609
 Total energy in the final basis set = -119.14417609
 
 --------------------------------------------------------------
 
                    Orbital Energies (a.u.)
 --------------------------------------------------------------
 
 Alpha MOs
 -- Occupied --
-10.2809 -10.2685 -10.2685  -0.8709  -0.7745  -0.6813  -0.5400  -0.5204
 -0.4765  -0.4629  -0.4196  -0.4166  -0.4116
 -- Virtual --
  0.0695   0.0851   0.0908   0.1002   0.1247   0.1300   0.1334   0.1430
  0.1434   0.1706   0.1711   0.1914   0.2299   0.2421   0.2450   0.2643
  0.2811   0.2842   0.2979   0.3051   0.3321   0.3428   0.4561   0.4644
  0.4711   0.5109   0.5138   0.5217   0.5520   0.5629   0.5862   0.5864
  0.6086   0.6209   0.6313   0.6380   0.6460   0.6526   0.7080   0.7217
  0.7261   0.7632   0.8195   0.8469   0.8650   0.8778   0.8816   0.9555
  1.0025   1.0479   1.0531   1.1174   1.1358   1.1734   1.1807   1.2161
  1.2251   1.2266   1.2554   1.2717   1.2854   1.2881   1.3166   1.3539
  1.3613   1.3947   1.4000   1.4481   1.4564   1.4674   1.4733   1.4782
  1.5198   1.5639   1.6071   1.6292   1.6382   1.6489   1.6819   1.6906
  1.7584   2.3715   2.4354   2.4741   2.4884   2.5294   2.5540   2.5910
  2.5954   2.7081   2.7958   2.8110   2.8320   2.9042   2.9093   2.9175
  2.9320   2.9341   3.0124   3.0167   3.0616   3.0674   3.0810   3.0959
  3.1179   3.1373   3.1784   3.1904   3.1918   3.2230   3.2851   3.3048
  3.3359   3.3378   3.3411   3.3535   3.3543   3.3676   3.3850   3.4136
  3.4437   3.4680   3.4810   3.4933   3.5605   3.5756   3.5904   3.6162
  3.6172   3.6740   3.6778   3.6977   3.7630   3.7735   3.8382   3.8679
  3.9124   3.9298   3.9371   3.9404   3.9423   3.9979   4.0233   4.0496
  4.0697   4.0909   4.1185   4.1350   4.1399   4.1449   4.1820   4.1903
  4.2230   4.2246   4.2457   4.3548   4.3579   4.3609   4.3963   4.4152
  4.4507   4.5530   4.5627   4.5662   4.6412   4.7928   4.8114   4.8994
  4.9262   4.9445   4.9474   4.9498   5.0432   5.0494   5.0619   5.0746
  5.0927   5.2167   5.2413   5.2560   5.2844   5.3265   5.3383   5.3405
  5.3521   5.3615   5.4267   5.4667   5.5063   5.5410   5.5909   5.6640
  5.8706   6.3754   6.3835   6.3905   6.4110   6.4528  25.1533  25.4106
 25.4234
 --------------------------------------------------------------
 
 -----------------------------------------------------------------
                    Cartesian Multipole Moments
 -----------------------------------------------------------------
    Charge (ESU x 10^10)
                 0.0000
    Dipole Moment (Debye)
         X       0.0000      Y      -0.0025      Z      -0.0571
       Tot       0.0571
    Quadrupole Moments (Debye-Ang)
        XX     -21.9643     XY      -0.0000     YY     -21.4449
        XZ      -0.0000     YZ       0.0080     ZZ     -21.8806
    Octopole Moments (Debye-Ang^2)
       XXX      -0.0000    XXY      -0.0204    XYY       0.0000
       YYY      -0.0441    XXZ      -1.3083    XYZ       0.0000
       YYZ       0.6156    XZZ       0.0000    YZZ      -0.0010
       ZZZ       0.0355
    Hexadecapole Moments (Debye-Ang^3)
      XXXX    -205.6745   XXXY      -0.0000   XXYY     -43.4492
      XYYY       0.0000   YYYY     -44.1595   XXXZ      -0.0000
      XXYZ       0.0226   XYYZ      -0.0000   YYYZ      -0.0013
      XXZZ     -47.0704   XYZZ       0.0000   YYZZ     -17.2625
      XZZZ      -0.0000   YZZZ       0.0040   ZZZZ     -74.0505
 -----------------------------------------------------------------
Archival summary:
1\1\cn0821\SP\ProcedureUnspecified\BasisUnspecified\38\r0852400\SunApr1205:50:142020SunApr1205:50:142020\0\\#,ProcedureUnspecified,BasisUnspecified,\\0,1\C\H,1,1.09253\H,1,1.09255,2,106.316\C,1,1.56376,2,109.677,3,118.584,0\H,4,1.09076,1,113.816,2,-58.173,0\H,4,1.09207,1,110.194,2,-179.472,0\H,4,1.09221,1,109.96,2,62.7319,0\C,1,1.56376,2,109.676,3,-118.584,0\H,8,1.09076,1,113.816,2,58.173,0\H,8,1.09207,1,110.194,2,179.472,0\H,8,1.09221,1,109.96,2,-62.7319,0\\\@

 Total job time:  42.97s(wall), 119.26s(cpu) 
 Sun Apr 12 05:50:14 2020

        *************************************************************
        *                                                           *
        *  Thank you very much for using Q-Chem.  Have a nice day.  *
        *                                                           *
        *************************************************************


