                  Welcome to Q-Chem
     A Quantum Leap Into The Future Of Chemistry


 Q-Chem 5.2 (devel), Q-Chem, Inc., Pleasanton, CA (2019)

 Yihan Shao,  Zhengting Gan,  E. Epifanovsky,  A. T. B. Gilbert,  M. Wormit,  
 J. Kussmann,  A. W. Lange,  A. Behn,  Jia Deng,  Xintian Feng,  D. Ghosh,  
 M. Goldey,  P. R. Horn,  L. D. Jacobson,  I. Kaliman,  T. Kus,  A. Landau,  
 Jie Liu,  E. I. Proynov,  R. M. Richard,  R. P. Steele,  E. J. Sundstrom,  
 H. L. Woodcock III,  P. M. Zimmerman,  D. Zuev,  B. Alam,  B. Albrecht,  
 E. Alguire,  S. A. Baeppler,  D. Barton,  Z. Benda,  Y. A. Bernard,  
 E. J. Berquist,  K. B. Bravaya,  H. Burton,  K. Carter-Fenk,  D. Casanova,  
 Chun-Min Chang,  Yunqing Chen,  A. Chien,  K. D. Closser,  M. P. Coons,  
 S. Coriani,  S. Dasgupta,  A. L. Dempwolff,  M. Diedenhofen,  Hainam Do,  
 R. G. Edgar,  Po-Tung Fang,  S. Faraji,  S. Fatehi,  Qingguo Feng,  
 J. Fosso-Tande,  J. Gayvert,  Qinghui Ge,  A. Ghysels,  G. Gidofalvi,  
 J. Gomes,  J. Gonthier,  A. Gunina,  D. Hait,  M. W. D. Hanson-Heine,  
 P. H. P. Harbach,  A. W. Hauser,  M. F. Herbst,  J. E. Herr,  
 E. G. Hohenstein,  Z. C. Holden,  Kerwin Hui,  B. C. Huynh,  T.-C. Jagau,  
 Hyunjun Ji,  B. Kaduk,  K. Khistyaev,  Jaehoon Kim,  P. Klunzinger,  K. Koh,  
 D. Kosenkov,  L. Koulias,  T. Kowalczyk,  C. M. Krauter,  A. Kunitsa,  
 Ka Un Lao,  A. Laurent,  K. V. Lawler,  Joonho Lee,  D. Lefrancois,  
 S. Lehtola,  D. S. Levine,  Yi-Pei Li,  You-Sheng Lin,  Fenglai Liu,  
 Kuan-Yu Liu,  E. Livshits,  M. Loipersberger,  A. Luenser,  P. Manohar,  
 E. Mansoor,  S. F. Manzer,  Shan-Ping Mao,  Yuezhi Mao,  N. Mardirossian,  
 A. V. Marenich,  T. Markovich,  L. A. Martinez-Martinez,  S. A. Maurer,  
 N. J. Mayhall,  S. C. McKenzie,  J.-M. Mewes,  P. Morgante,  A. F. Morrison,  
 J. W. Mullinax,  K. Nanda,  T. S. Nguyen-Beck,  R. Olivares-Amaya,  
 J. A. Parkhill,  S. K. Paul,  Zheng Pei,  T. M. Perrine,  F. Plasser,  
 P. Pokhilko,  S. Prager,  A. Prociuk,  E. Ramos,  B. Rana,  D. R. Rehn,  
 F. Rob,  M. Scheurer,  M. Schneider,  N. Sergueev,  S. M. Sharada,  
 S. Sharma,  D. W. Small,  T. Stauch,  C. J. Stein,  T. Stein,  Yu-Chuan Su,  
 S. P. Veccham,  A. J. W. Thom,  A. Tkatchenko,  T. Tsuchimochi,  
 N. M. Tubman,  L. Vogt,  M. L. Vidal,  O. Vydrov,  M. A. Watson,  J. Wenzel,  
 M. de Wergifosse,  T. A. Wesolowski,  A. White,  J. Witte,  A. Yamada,  
 Jun Yang,  K. Yao,  S. Yeganeh,  S. R. Yost,  Zhi-Qiang You,  A. Zech,  
 Igor Ying Zhang,  Xing Zhang,  Yan Zhao,  Ying Zhu,  B. R. Brooks,  
 G. K. L. Chan,  C. J. Cramer,  M. S. Gordon,  W. J. Hehre,  A. Klamt,  
 M. W. Schmidt,  C. D. Sherrill,  D. G. Truhlar,  A. Aspuru-Guzik,  R. Baer,  
 A. T. Bell,  N. A. Besley,  Jeng-Da Chai,  A. E. DePrince, III,  
 R. A. DiStasio Jr.,  A. Dreuw,  B. D. Dunietz,  T. R. Furlani,  
 Chao-Ping Hsu,  Yousung Jung,  Jing Kong,  D. S. Lambrecht,  WanZhen Liang,  
 C. Ochsenfeld,  V. A. Rassolov,  L. V. Slipchenko,  J. E. Subotnik,  
 T. Van Voorhis,  J. M. Herbert,  A. I. Krylov,  P. M. W. Gill,  M. Head-Gordon

 Contributors to earlier versions of Q-Chem not listed above: 
 R. D. Adamson,  B. Austin,  J. Baker,  G. J. O. Beran,  K. Brandhorst,  
 S. T. Brown,  E. F. C. Byrd,  A. K. Chakraborty,  C.-L. Cheng,  
 Siu Hung Chien,  D. M. Chipman,  D. L. Crittenden,  H. Dachsel,  
 R. J. Doerksen,  A. D. Dutoi,  L. Fusti-Molnar,  W. A. Goddard III,  
 A. Golubeva-Zadorozhnaya,  S. R. Gwaltney,  G. Hawkins,  A. Heyden,  
 S. Hirata,  G. Kedziora,  F. J. Keil,  C. Kelley,  Jihan Kim,  R. A. King,  
 R. Z. Khaliullin,  P. P. Korambath,  W. Kurlancheek,  A. M. Lee,  M. S. Lee,  
 S. V. Levchenko,  Ching Yeh Lin,  D. Liotard,  R. C. Lochan,  I. Lotan,  
 P. E. Maslen,  N. Nair,  D. P. O'Neill,  D. Neuhauser,  E. Neuscamman,  
 C. M. Oana,  R. Olson,  B. Peters,  R. Peverati,  P. A. Pieniazek,  
 Y. M. Rhee,  J. Ritchie,  M. A. Rohrdanz,  E. Rosta,  N. J. Russ,  
 H. F. Schaefer III,  N. E. Schultz,  N. Shenvi,  A. C. Simmonett,  A. Sodt,  
 D. Stuck,  K. S. Thanthiriwatte,  V. Vanovschi,  Tao Wang,  A. Warshel,  
 C. F. Williams,  Q. Wu,  X. Xu,  W. Zhang

 Please cite Q-Chem as follows:
 Y. Shao et al., Mol. Phys. 113, 184-215 (2015)
 DOI: 10.1080/00268976.2014.952696

 Q-Chem 5.2.2 for Intel X86 EM64T Linux

 Parts of Q-Chem use Armadillo 9.800.1 (Horizon Scraper).
 http://arma.sourceforge.net/

 Q-Chem begins on Sun Apr 12 07:49:31 2020  

Host: cn0821
0

     Scratch files written to /tmp/ypli/6721342.srvc1/qchem190602//
Warning:  Did not find "$end" marker in "$molecule" section

Checking the input file for inconsistencies... 	...done.

--------------------------------------------------------------
User input:
--------------------------------------------------------------
$rem
   JOBTYPE  sp
   EXCHANGE   omegaB97X-D
   BASIS   6-311+G(2df,2pd)
   max_scf_cycles   250
   geom_opt_max_cycles   1500
   basis2 6-31G*
   scf_algorithm rca_diis
   SYM_IGNORE  TRUE
   print_input   true
   geom_opt_dmax   80
   pop_mulliken false
   XC_GRID 000075000302
$end

$molecule
0 1
C       1.2734817495     -0.0263763177     0.2307053765
C       -0.0000000055     -0.0153534028     -0.6145877131
H       1.2303115015     -0.8225663502     0.9771218799
H       1.3341162585     0.8005865489     0.9463591227
H       2.1330451495     0.0722995362     -0.4281414389
C       -1.2734816190     -0.0263758165     0.2307057600
H       -0.0000003171     -0.9062218475     -1.2472185614
H       0.0000001149     0.8736899121     -1.2492379856
H       -1.2303133186     -0.8225673838     0.9771208106
H       -2.1330453304     0.0722980548     -0.4281410452
H       -1.3341142438     0.8005877324     0.9463588134
--------------------------------------------------------------
 ----------------------------------------------------------------
             Standard Nuclear Orientation (Angstroms)
    I     Atom           X                Y                Z
 ----------------------------------------------------------------
    1      C       1.2734817495    -0.0263763177     0.2307053765
    2      C      -0.0000000055    -0.0153534028    -0.6145877131
    3      H       1.2303115015    -0.8225663502     0.9771218799
    4      H       1.3341162585     0.8005865489     0.9463591227
    5      H       2.1330451495     0.0722995362    -0.4281414389
    6      C      -1.2734816190    -0.0263758165     0.2307057600
    7      H      -0.0000003171    -0.9062218475    -1.2472185614
    8      H       0.0000001149     0.8736899121    -1.2492379856
    9      H      -1.2303133186    -0.8225673838     0.9771208106
   10      H      -2.1330453304     0.0722980548    -0.4281410452
   11      H      -1.3341142438     0.8005877324     0.9463588134
 ----------------------------------------------------------------
 Nuclear Repulsion Energy =          82.69133145 hartrees
 There are       13 alpha and       13 beta electrons
 Requested basis set is 6-311+G(2df,2pd)
 There are 72 shells and 214 basis functions

 Total QAlloc Memory Limit   2000 MB
 Mega-Array Size       188 MB
 MEM_STATIC part       192 MB

                       Distance Matrix (Angstroms)
             C (  1)   C (  2)   H (  3)   H (  4)   H (  5)   C (  6)
   C (  2)  1.528528
   H (  3)  1.092209  2.167671
   H (  4)  1.095310  2.209565  1.626760
   H (  5)  1.087504  2.142972  1.894856  1.748697
   C (  6)  2.546963  1.528528  2.731307  2.827648  3.471058
   H (  7)  2.140127  1.092643  2.543296  3.082993  2.485613  2.140127
   H (  8)  2.149909  1.092327  3.057389  2.570186  2.422046  2.149909
   H (  9)  2.731308  2.167672  2.460625  3.035107  3.753362  1.092209
   H ( 10)  3.471058  2.142972  3.753361  3.800114  4.266090  1.087504
   H ( 11)  2.827647  2.209564  3.035104  2.668231  3.800112  1.095310
             H (  7)   H (  8)   H (  9)   H ( 10)
   H (  8)  1.779913
   H (  9)  2.543296  3.057390
   H ( 10)  2.485613  2.422047  1.894854
   H ( 11)  3.082992  2.570185  1.626762  1.748699
 
 A cutoff of  1.0D-09 yielded   2536 shell pairs
 There are     22582 function pairs (     27763 Cartesian)
 Smallest overlap matrix eigenvalue = 8.46E-05

 Scale SEOQF with 1.000000e-01/1.000000e-01/1.000000e-01

 Standard Electronic Orientation quadrupole field applied
 Nucleus-field energy     =     0.0000000005 hartrees
 Requested basis set is 6-31G(d)
 There are 28 shells and 58 basis functions
 A cutoff of  1.0D-09 yielded    402 shell pairs
 There are      1773 function pairs (      1968 Cartesian)
 Smallest overlap matrix eigenvalue = 6.59E-03
 Guess from superposition of atomic densities
 Warning:  Energy on first SCF cycle will be non-variational
 SAD guess density has 26.000000 electrons
 Long-range K will be added via erf
 Coulomb attenuation parameter = 0.2 bohr**(-1)
 A restricted hybrid HF-DFT SCF calculation will be
 performed using Relaxed Constraint Minimization + Pulay DIIS
 Exchange:     0.2220 Hartree-Fock + 1.0000 wB97X-D + LR-HF
 Correlation:  1.0000 wB97X-D
 Using Euler-Maclaurin-Lebedev (75,302) quadrature formula
 Dispersion:   Grimme D
 SCF converges when DIIS error is below 1.0E-04
 using 3 threads for integral computing
 -------------------------------------------------------
 OpenMP Integral computing Module                
 Release: version 1.0, May 2013, Q-Chem Inc. Pittsburgh 
 -------------------------------------------------------
 using 3 threads for integral computing
 -------------------------------------------------------
 OpenMP Integral computing Module                
 Release: version 1.0, May 2013, Q-Chem Inc. Pittsburgh 
 -------------------------------------------------------
 ---------------------------------------
  Cycle       Energy         DIIS Error
 ---------------------------------------
    1    -119.6146068656      1.00E-01
    2    -119.0521735010      9.07E-03
    3    -119.0737924152      2.52E-03
    4    -119.0878770042      1.71E-03
    5    -119.0886061139      2.84E-04 Done RCA. Switching to DIIS
    6    -119.0891325971      2.08E-04
    7    -119.0891513985      4.92E-06 Convergence criterion met
 ---------------------------------------
 SCF time:  CPU 32.66 s  wall 11.29 s
 SCF   energy in the small basis set = -119.08915140
 Total energy in the small basis set = -119.08915140
 ----------------------------------------------------
  Cycle       Energy    
 ----------------------------------------------------
    1     -16.5340770363     -1.65E+01
 Long-range K will be added via erf
 Coulomb attenuation parameter = 0.2 bohr**(-1)
 A restricted hybrid HF-DFT SCF calculation will be
 performed using Relaxed Constraint Minimization + Pulay DIIS
 Exchange:     0.2220 Hartree-Fock + 1.0000 wB97X-D + LR-HF
 Correlation:  1.0000 wB97X-D
 Using Euler-Maclaurin-Lebedev (75,302) quadrature formula
 Dispersion:   Grimme D
 SCF converges when DIIS error is below 1.0E-05
 Basis2 calculation detected. Using small basis as guess for larger.
 SCFMinFind is unable to tell whether the solution found is close.
 Resetting ReadMinima to 0 and attempting to follow guess.
 SCFMinFind following SCF Guess.
 using 3 threads for integral computing
 -------------------------------------------------------
 OpenMP Integral computing Module                
 Release: version 1.0, May 2013, Q-Chem Inc. Pittsburgh 
 -------------------------------------------------------
 using 3 threads for integral computing
 -------------------------------------------------------
 OpenMP Integral computing Module                
 Release: version 1.0, May 2013, Q-Chem Inc. Pittsburgh 
 -------------------------------------------------------
 ---------------------------------------
  Cycle       Energy         DIIS Error
 ---------------------------------------
    1    -119.1088852524      4.21E-03
    2    -119.1308837976      6.09E-04 Done RCA. Switching to DIIS
    3    -119.1317525493      4.27E-04
    4    -119.1327539968      4.43E-05
    5    -119.1327683416      9.90E-06 Convergence criterion met
 ---------------------------------------
 SCF time:  CPU 84.97 s  wall 28.75 s
 SCF   energy in the final basis set = -119.13276834
 Total energy in the final basis set = -119.13276834
 
 --------------------------------------------------------------
 
                    Orbital Energies (a.u.)
 --------------------------------------------------------------
 
 Alpha MOs
 -- Occupied --
-10.2754 -10.2655 -10.2655  -0.8812  -0.7777  -0.6808  -0.5448  -0.5214
 -0.5059  -0.4466  -0.4283  -0.4088  -0.3991
 -- Virtual --
  0.0682   0.0864   0.0887   0.1017   0.1208   0.1247   0.1355   0.1433
  0.1456   0.1694   0.1709   0.1955   0.2179   0.2337   0.2458   0.2672
  0.2829   0.2840   0.3066   0.3071   0.3385   0.3557   0.4583   0.4665
  0.4707   0.5090   0.5168   0.5240   0.5435   0.5673   0.5808   0.5810
  0.6136   0.6274   0.6337   0.6474   0.6495   0.6686   0.7152   0.7212
  0.7259   0.7663   0.8217   0.8663   0.8740   0.8810   0.8861   0.9430
  0.9840   1.0376   1.0699   1.1180   1.1303   1.1800   1.1954   1.2259
  1.2362   1.2417   1.2575   1.2619   1.2830   1.3200   1.3509   1.3694
  1.3808   1.3923   1.4185   1.4457   1.4476   1.4525   1.4641   1.4901
  1.5384   1.5636   1.6068   1.6178   1.6226   1.6503   1.6742   1.6900
  1.7850   2.4004   2.4690   2.4748   2.5026   2.5347   2.5648   2.5974
  2.6188   2.7548   2.8026   2.8157   2.8173   2.8920   2.9318   2.9332
  2.9494   2.9561   2.9997   3.0044   3.0155   3.0748   3.0772   3.1048
  3.1160   3.1371   3.1638   3.1730   3.2353   3.2379   3.2684   3.2936
  3.3119   3.3428   3.3436   3.3616   3.3975   3.4350   3.4545   3.4635
  3.4721   3.4908   3.5240   3.5554   3.5580   3.5639   3.5747   3.6011
  3.6126   3.6255   3.6494   3.6750   3.7495   3.7846   3.8328   3.8672
  3.8883   3.9139   3.9377   3.9538   3.9689   3.9911   4.0029   4.0485
  4.0815   4.0851   4.0942   4.1278   4.1337   4.1673   4.1777   4.2092
  4.2493   4.2883   4.2975   4.3375   4.3782   4.4058   4.4199   4.4304
  4.4735   4.5644   4.5885   4.6083   4.6907   4.7655   4.8188   4.8338
  4.8664   4.9359   4.9426   4.9505   4.9754   5.0835   5.0976   5.1060
  5.1314   5.2010   5.2712   5.2854   5.2956   5.3148   5.3591   5.4130
  5.4395   5.5159   5.5375   5.5513   5.5735   5.6258   5.7030   5.7741
  5.9623   6.2982   6.3757   6.4364   6.4369   6.4444  25.1913  25.4321
 25.4522
 --------------------------------------------------------------
 
 -----------------------------------------------------------------
                    Cartesian Multipole Moments
 -----------------------------------------------------------------
    Charge (ESU x 10^10)
                -0.0000
    Dipole Moment (Debye)
         X      -0.0000      Y       0.1169      Z       0.0125
       Tot       0.1175
    Quadrupole Moments (Debye-Ang)
        XX     -22.4872     XY       0.0000     YY     -22.0163
        XZ       0.0000     YZ      -0.2222     ZZ     -21.1246
    Octopole Moments (Debye-Ang^2)
       XXX      -0.0000    XXY       1.8565    XYY      -0.0000
       YYY       0.9841    XXZ      -1.6155    XYZ      -0.0000
       YYZ       0.3058    XZZ       0.0000    YZZ       0.1382
       ZZZ       1.8632
    Hexadecapole Moments (Debye-Ang^3)
      XXXX    -203.8223   XXXY       0.0000   XXYY     -43.4076
      XYYY       0.0000   YYYY     -44.1918   XXXZ       0.0000
      XXYZ      -0.1316   XYYZ      -0.0000   YYYZ       0.1582
      XXZZ     -44.0472   XYZZ       0.0000   YYZZ     -17.3060
      XZZZ       0.0000   YZZZ      -0.1274   ZZZZ     -73.1486
 -----------------------------------------------------------------
Archival summary:
1\1\cn0821\SP\ProcedureUnspecified\BasisUnspecified\38\r0852400\SunApr1207:50:152020SunApr1207:50:152020\0\\#,ProcedureUnspecified,BasisUnspecified,\\0,1\C\H,1,1.09233\H,1,1.09264,2,109.099\C,1,1.52853,2,109.097,3,118.156,0\H,4,1.0875,1,108.834,2,-53.5419,0\H,4,1.09221,1,110.503,2,171.674,0\H,4,1.09531,1,113.703,2,64.9464,0\C,1,1.52853,2,109.097,3,-118.156,0\H,8,1.0875,1,108.834,2,53.542,0\H,8,1.09221,1,110.503,2,-171.674,0\H,8,1.09531,1,113.703,2,-64.9464,0\\\@

 Total job time:  44.31s(wall), 122.81s(cpu) 
 Sun Apr 12 07:50:15 2020

        *************************************************************
        *                                                           *
        *  Thank you very much for using Q-Chem.  Have a nice day.  *
        *                                                           *
        *************************************************************


