                  Welcome to Q-Chem
     A Quantum Leap Into The Future Of Chemistry


 Q-Chem 5.2 (devel), Q-Chem, Inc., Pleasanton, CA (2019)

 Yihan Shao,  Zhengting Gan,  E. Epifanovsky,  A. T. B. Gilbert,  M. Wormit,  
 J. Kussmann,  A. W. Lange,  A. Behn,  Jia Deng,  Xintian Feng,  D. Ghosh,  
 M. Goldey,  P. R. Horn,  L. D. Jacobson,  I. Kaliman,  T. Kus,  A. Landau,  
 Jie Liu,  E. I. Proynov,  R. M. Richard,  R. P. Steele,  E. J. Sundstrom,  
 H. L. Woodcock III,  P. M. Zimmerman,  D. Zuev,  B. Alam,  B. Albrecht,  
 E. Alguire,  S. A. Baeppler,  D. Barton,  Z. Benda,  Y. A. Bernard,  
 E. J. Berquist,  K. B. Bravaya,  H. Burton,  K. Carter-Fenk,  D. Casanova,  
 Chun-Min Chang,  Yunqing Chen,  A. Chien,  K. D. Closser,  M. P. Coons,  
 S. Coriani,  S. Dasgupta,  A. L. Dempwolff,  M. Diedenhofen,  Hainam Do,  
 R. G. Edgar,  Po-Tung Fang,  S. Faraji,  S. Fatehi,  Qingguo Feng,  
 J. Fosso-Tande,  J. Gayvert,  Qinghui Ge,  A. Ghysels,  G. Gidofalvi,  
 J. Gomes,  J. Gonthier,  A. Gunina,  D. Hait,  M. W. D. Hanson-Heine,  
 P. H. P. Harbach,  A. W. Hauser,  M. F. Herbst,  J. E. Herr,  
 E. G. Hohenstein,  Z. C. Holden,  Kerwin Hui,  B. C. Huynh,  T.-C. Jagau,  
 Hyunjun Ji,  B. Kaduk,  K. Khistyaev,  Jaehoon Kim,  P. Klunzinger,  K. Koh,  
 D. Kosenkov,  L. Koulias,  T. Kowalczyk,  C. M. Krauter,  A. Kunitsa,  
 Ka Un Lao,  A. Laurent,  K. V. Lawler,  Joonho Lee,  D. Lefrancois,  
 S. Lehtola,  D. S. Levine,  Yi-Pei Li,  You-Sheng Lin,  Fenglai Liu,  
 Kuan-Yu Liu,  E. Livshits,  M. Loipersberger,  A. Luenser,  P. Manohar,  
 E. Mansoor,  S. F. Manzer,  Shan-Ping Mao,  Yuezhi Mao,  N. Mardirossian,  
 A. V. Marenich,  T. Markovich,  L. A. Martinez-Martinez,  S. A. Maurer,  
 N. J. Mayhall,  S. C. McKenzie,  J.-M. Mewes,  P. Morgante,  A. F. Morrison,  
 J. W. Mullinax,  K. Nanda,  T. S. Nguyen-Beck,  R. Olivares-Amaya,  
 J. A. Parkhill,  S. K. Paul,  Zheng Pei,  T. M. Perrine,  F. Plasser,  
 P. Pokhilko,  S. Prager,  A. Prociuk,  E. Ramos,  B. Rana,  D. R. Rehn,  
 F. Rob,  M. Scheurer,  M. Schneider,  N. Sergueev,  S. M. Sharada,  
 S. Sharma,  D. W. Small,  T. Stauch,  C. J. Stein,  T. Stein,  Yu-Chuan Su,  
 S. P. Veccham,  A. J. W. Thom,  A. Tkatchenko,  T. Tsuchimochi,  
 N. M. Tubman,  L. Vogt,  M. L. Vidal,  O. Vydrov,  M. A. Watson,  J. Wenzel,  
 M. de Wergifosse,  T. A. Wesolowski,  A. White,  J. Witte,  A. Yamada,  
 Jun Yang,  K. Yao,  S. Yeganeh,  S. R. Yost,  Zhi-Qiang You,  A. Zech,  
 Igor Ying Zhang,  Xing Zhang,  Yan Zhao,  Ying Zhu,  B. R. Brooks,  
 G. K. L. Chan,  C. J. Cramer,  M. S. Gordon,  W. J. Hehre,  A. Klamt,  
 M. W. Schmidt,  C. D. Sherrill,  D. G. Truhlar,  A. Aspuru-Guzik,  R. Baer,  
 A. T. Bell,  N. A. Besley,  Jeng-Da Chai,  A. E. DePrince, III,  
 R. A. DiStasio Jr.,  A. Dreuw,  B. D. Dunietz,  T. R. Furlani,  
 Chao-Ping Hsu,  Yousung Jung,  Jing Kong,  D. S. Lambrecht,  WanZhen Liang,  
 C. Ochsenfeld,  V. A. Rassolov,  L. V. Slipchenko,  J. E. Subotnik,  
 T. Van Voorhis,  J. M. Herbert,  A. I. Krylov,  P. M. W. Gill,  M. Head-Gordon

 Contributors to earlier versions of Q-Chem not listed above: 
 R. D. Adamson,  B. Austin,  J. Baker,  G. J. O. Beran,  K. Brandhorst,  
 S. T. Brown,  E. F. C. Byrd,  A. K. Chakraborty,  C.-L. Cheng,  
 Siu Hung Chien,  D. M. Chipman,  D. L. Crittenden,  H. Dachsel,  
 R. J. Doerksen,  A. D. Dutoi,  L. Fusti-Molnar,  W. A. Goddard III,  
 A. Golubeva-Zadorozhnaya,  S. R. Gwaltney,  G. Hawkins,  A. Heyden,  
 S. Hirata,  G. Kedziora,  F. J. Keil,  C. Kelley,  Jihan Kim,  R. A. King,  
 R. Z. Khaliullin,  P. P. Korambath,  W. Kurlancheek,  A. M. Lee,  M. S. Lee,  
 S. V. Levchenko,  Ching Yeh Lin,  D. Liotard,  R. C. Lochan,  I. Lotan,  
 P. E. Maslen,  N. Nair,  D. P. O'Neill,  D. Neuhauser,  E. Neuscamman,  
 C. M. Oana,  R. Olson,  B. Peters,  R. Peverati,  P. A. Pieniazek,  
 Y. M. Rhee,  J. Ritchie,  M. A. Rohrdanz,  E. Rosta,  N. J. Russ,  
 H. F. Schaefer III,  N. E. Schultz,  N. Shenvi,  A. C. Simmonett,  A. Sodt,  
 D. Stuck,  K. S. Thanthiriwatte,  V. Vanovschi,  Tao Wang,  A. Warshel,  
 C. F. Williams,  Q. Wu,  X. Xu,  W. Zhang

 Please cite Q-Chem as follows:
 Y. Shao et al., Mol. Phys. 113, 184-215 (2015)
 DOI: 10.1080/00268976.2014.952696

 Q-Chem 5.2.2 for Intel X86 EM64T Linux

 Parts of Q-Chem use Armadillo 9.800.1 (Horizon Scraper).
 http://arma.sourceforge.net/

 Q-Chem begins on Sun Apr 12 06:32:23 2020  

Host: cn0821
0

     Scratch files written to /tmp/ypli/6721342.srvc1/qchem178729//
Warning:  Did not find "$end" marker in "$molecule" section

Checking the input file for inconsistencies... 	...done.

--------------------------------------------------------------
User input:
--------------------------------------------------------------
$rem
   JOBTYPE  sp
   EXCHANGE   omegaB97X-D
   BASIS   6-311+G(2df,2pd)
   max_scf_cycles   250
   geom_opt_max_cycles   1500
   basis2 6-31G*
   scf_algorithm rca_diis
   SYM_IGNORE  TRUE
   print_input   true
   geom_opt_dmax   80
   pop_mulliken false
   XC_GRID 000075000302
$end

$molecule
0 1
C       1.2758891048     0.0287600309     0.1651519940
C       -0.0000000991     -0.0297749626     -0.5332328855
H       1.0873200033     -0.8216093336     0.8305117275
H       1.1545527697     0.8500420383     0.8751130568
H       2.2810695615     -0.0350581275     -0.2384137343
C       -1.2758890340     0.0287601096     0.1651518645
H       0.0000004861     -0.8736986600     -1.2235601134
H       -0.0000003273     0.8592041111     -1.1668879643
H       -1.0873201912     -0.8216092799     0.8305116508
H       -2.2810697511     -0.0350574643     -0.2384134469
H       -1.1545525833     0.8500422041     0.8751128697
--------------------------------------------------------------
 ----------------------------------------------------------------
             Standard Nuclear Orientation (Angstroms)
    I     Atom           X                Y                Z
 ----------------------------------------------------------------
    1      C       1.2758891048     0.0287600309     0.1651519940
    2      C      -0.0000000991    -0.0297749626    -0.5332328855
    3      H       1.0873200033    -0.8216093336     0.8305117275
    4      H       1.1545527697     0.8500420383     0.8751130568
    5      H       2.2810695615    -0.0350581275    -0.2384137343
    6      C      -1.2758890340     0.0287601096     0.1651518645
    7      H       0.0000004861    -0.8736986600    -1.2235601134
    8      H      -0.0000003273     0.8592041111    -1.1668879643
    9      H      -1.0873201912    -0.8216092799     0.8305116508
   10      H      -2.2810697511    -0.0350574643    -0.2384134469
   11      H      -1.1545525833     0.8500422041     0.8751128697
 ----------------------------------------------------------------
 Nuclear Repulsion Energy =          85.01463505 hartrees
 There are       13 alpha and       13 beta electrons
 Requested basis set is 6-311+G(2df,2pd)
 There are 72 shells and 214 basis functions

 Total QAlloc Memory Limit   2000 MB
 Mega-Array Size       188 MB
 MEM_STATIC part       192 MB

                       Distance Matrix (Angstroms)
             C (  1)   C (  2)   H (  3)   H (  4)   H (  5)   C (  6)
   C (  2)  1.455700
   H (  3)  1.096079  1.915481
   H (  4)  1.092370  2.022501  1.673597
   H (  5)  1.085046  2.300049  1.785022  1.814493
   C (  6)  2.551778  1.455699  2.598190  2.661878  3.580348
   H (  7)  2.090657  1.090302  2.324691  2.951051  2.622424  2.090657
   H (  8)  2.022835  1.091697  2.827898  2.345814  2.620124  2.022834
   H (  9)  2.598190  1.915481  2.174640  2.796856  3.620402  1.096079
   H ( 10)  3.580348  2.300049  3.620403  3.718447  4.562139  1.085047
   H ( 11)  2.661878  2.022500  2.796856  2.309105  3.718446  1.092370
             H (  7)   H (  8)   H (  9)   H ( 10)
   H (  8)  1.733829
   H (  9)  2.324691  2.827897
   H ( 10)  2.622425  2.620123  1.785022
   H ( 11)  2.951051  2.345814  1.673597  1.814493
 
 A cutoff of  1.0D-09 yielded   2552 shell pairs
 There are     22638 function pairs (     27819 Cartesian)
 Smallest overlap matrix eigenvalue = 7.88E-05

 Scale SEOQF with 1.000000e-01/1.000000e-01/1.000000e-01

 Standard Electronic Orientation quadrupole field applied
 Nucleus-field energy     =     0.0000000007 hartrees
 Requested basis set is 6-31G(d)
 There are 28 shells and 58 basis functions
 A cutoff of  1.0D-09 yielded    402 shell pairs
 There are      1773 function pairs (      1968 Cartesian)
 Smallest overlap matrix eigenvalue = 5.35E-03
 Guess from superposition of atomic densities
 Warning:  Energy on first SCF cycle will be non-variational
 SAD guess density has 26.000000 electrons
 Long-range K will be added via erf
 Coulomb attenuation parameter = 0.2 bohr**(-1)
 A restricted hybrid HF-DFT SCF calculation will be
 performed using Relaxed Constraint Minimization + Pulay DIIS
 Exchange:     0.2220 Hartree-Fock + 1.0000 wB97X-D + LR-HF
 Correlation:  1.0000 wB97X-D
 Using Euler-Maclaurin-Lebedev (75,302) quadrature formula
 Dispersion:   Grimme D
 SCF converges when DIIS error is below 1.0E-04
 using 3 threads for integral computing
 -------------------------------------------------------
 OpenMP Integral computing Module                
 Release: version 1.0, May 2013, Q-Chem Inc. Pittsburgh 
 -------------------------------------------------------
 using 3 threads for integral computing
 -------------------------------------------------------
 OpenMP Integral computing Module                
 Release: version 1.0, May 2013, Q-Chem Inc. Pittsburgh 
 -------------------------------------------------------
 ---------------------------------------
  Cycle       Energy         DIIS Error
 ---------------------------------------
    1    -119.8696800257      1.08E-01
    2    -119.0144419183      9.56E-03
    3    -119.0381419860      2.60E-03
    4    -119.0539860401      1.80E-03
    5    -119.0547718076      2.70E-04 Done RCA. Switching to DIIS
    6    -119.0553659747      2.05E-04
    7    -119.0553838272      4.81E-06 Convergence criterion met
 ---------------------------------------
 SCF time:  CPU 32.93 s  wall 11.35 s
 SCF   energy in the small basis set = -119.05538383
 Total energy in the small basis set = -119.05538383
 ----------------------------------------------------
  Cycle       Energy    
 ----------------------------------------------------
    1     -16.5980591010     -1.66E+01
 Long-range K will be added via erf
 Coulomb attenuation parameter = 0.2 bohr**(-1)
 A restricted hybrid HF-DFT SCF calculation will be
 performed using Relaxed Constraint Minimization + Pulay DIIS
 Exchange:     0.2220 Hartree-Fock + 1.0000 wB97X-D + LR-HF
 Correlation:  1.0000 wB97X-D
 Using Euler-Maclaurin-Lebedev (75,302) quadrature formula
 Dispersion:   Grimme D
 SCF converges when DIIS error is below 1.0E-05
 Basis2 calculation detected. Using small basis as guess for larger.
 SCFMinFind is unable to tell whether the solution found is close.
 Resetting ReadMinima to 0 and attempting to follow guess.
 SCFMinFind following SCF Guess.
 using 3 threads for integral computing
 -------------------------------------------------------
 OpenMP Integral computing Module                
 Release: version 1.0, May 2013, Q-Chem Inc. Pittsburgh 
 -------------------------------------------------------
 using 3 threads for integral computing
 -------------------------------------------------------
 OpenMP Integral computing Module                
 Release: version 1.0, May 2013, Q-Chem Inc. Pittsburgh 
 -------------------------------------------------------
 ---------------------------------------
  Cycle       Energy         DIIS Error
 ---------------------------------------
    1    -119.0766428954      4.21E-03
    2    -119.0988699273      6.28E-04 Done RCA. Switching to DIIS
    3    -119.0997550755      4.51E-04
    4    -119.1008620761      4.80E-05
    5    -119.1008785080      1.37E-05
    6    -119.1008797057      4.21E-06 Convergence criterion met
 ---------------------------------------
 SCF time:  CPU 100.60 s  wall 33.98 s
 SCF   energy in the final basis set = -119.10087971
 Total energy in the final basis set = -119.10087971
 
 --------------------------------------------------------------
 
                    Orbital Energies (a.u.)
 --------------------------------------------------------------
 
 Alpha MOs
 -- Occupied --
-10.2662 -10.2660 -10.2657  -0.9095  -0.7900  -0.6744  -0.5607  -0.5542
 -0.4786  -0.4762  -0.4475  -0.3996  -0.3701
 -- Virtual --
  0.0703   0.0839   0.0922   0.0969   0.1162   0.1290   0.1338   0.1403
  0.1498   0.1709   0.1754   0.1962   0.2049   0.2284   0.2496   0.2629
  0.2685   0.2850   0.3134   0.3320   0.3361   0.3789   0.4468   0.4613
  0.4774   0.4985   0.5067   0.5098   0.5687   0.5733   0.5778   0.5873
  0.6116   0.6298   0.6429   0.6623   0.6667   0.6842   0.7208   0.7212
  0.7263   0.7807   0.8186   0.8355   0.8920   0.8957   0.9289   0.9787
  0.9995   1.0346   1.0479   1.0739   1.1350   1.1619   1.2323   1.2458
  1.2475   1.2801   1.3018   1.3030   1.3200   1.3206   1.3476   1.3677
  1.3682   1.4287   1.4531   1.4554   1.4611   1.4712   1.4804   1.4810
  1.5339   1.5703   1.5802   1.6115   1.6359   1.6602   1.6831   1.7091
  1.8718   2.4115   2.4770   2.5116   2.5303   2.5795   2.5942   2.5961
  2.6525   2.7322   2.7610   2.8290   2.8507   2.8851   2.9252   2.9708
  2.9837   2.9904   3.0395   3.0445   3.0493   3.0601   3.0955   3.1534
  3.1715   3.1723   3.1801   3.2288   3.2351   3.2358   3.2832   3.3247
  3.3294   3.3674   3.3764   3.3902   3.3929   3.4123   3.4301   3.4466
  3.4597   3.4988   3.5169   3.5439   3.5621   3.5730   3.5873   3.5967
  3.6266   3.6512   3.6920   3.7171   3.7233   3.7386   3.7894   3.8960
  3.9075   3.9334   3.9666   4.0067   4.0289   4.0385   4.0838   4.0914
  4.1378   4.1657   4.1757   4.2104   4.2126   4.2340   4.2649   4.2847
  4.2912   4.3736   4.4001   4.4322   4.4346   4.4826   4.4908   4.5367
  4.5889   4.6287   4.6783   4.6961   4.6979   4.7380   4.7916   4.8404
  4.9280   4.9551   4.9591   5.0306   5.0400   5.0862   5.1498   5.1579
  5.1802   5.2389   5.2412   5.2694   5.3487   5.3562   5.3705   5.4385
  5.4507   5.5368   5.5607   5.5905   5.6939   5.7664   5.8744   6.0104
  6.1470   6.3864   6.4160   6.4401   6.4497   6.5140  25.3098  25.4536
 25.5648
 --------------------------------------------------------------
 
 -----------------------------------------------------------------
                    Cartesian Multipole Moments
 -----------------------------------------------------------------
    Charge (ESU x 10^10)
                 0.0000
    Dipole Moment (Debye)
         X      -0.0000      Y      -0.0297      Z      -0.0286
       Tot       0.0412
    Quadrupole Moments (Debye-Ang)
        XX     -20.7568     XY      -0.0000     YY     -21.9500
        XZ      -0.0000     YZ       0.4111     ZZ     -22.8535
    Octopole Moments (Debye-Ang^2)
       XXX      -0.0000    XXY      -0.1859    XYY       0.0000
       YYY      -0.2667    XXZ      -2.1621    XYZ       0.0000
       YYZ       0.6419    XZZ       0.0000    YZZ      -0.0462
       ZZZ       1.5394
    Hexadecapole Moments (Debye-Ang^3)
      XXXX    -178.4285   XXXY      -0.0000   XXYY     -43.1589
      XYYY       0.0000   YYYY     -44.7540   XXXZ      -0.0000
      XXYZ       0.5283   XYYZ      -0.0000   YYYZ      -0.2168
      XXZZ     -45.8322   XYZZ       0.0000   YYZZ     -17.1418
      XZZZ      -0.0000   YZZZ       0.4411   ZZZZ     -67.7744
 -----------------------------------------------------------------
Archival summary:
1\1\cn0821\SP\ProcedureUnspecified\BasisUnspecified\38\r0852400\SunApr1206:33:132020SunApr1206:33:132020\0\\#,ProcedureUnspecified,BasisUnspecified,\\0,1\C\H,1,1.0903\H,1,1.0917,2,105.236\C,1,1.4557,2,109.566,3,111.536,0\H,4,1.08505,1,129.136,2,-47.647,0\H,4,1.09237,1,104.163,2,176.102,0\H,4,1.09608,1,96.2718,2,74.3444,0\C,1,1.4557,2,109.566,3,-111.536,0\H,8,1.08505,1,129.136,2,47.6469,0\H,8,1.09237,1,104.163,2,-176.102,0\H,8,1.09608,1,96.2718,2,-74.3444,0\\\@

 Total job time:  49.74s(wall), 138.84s(cpu) 
 Sun Apr 12 06:33:13 2020

        *************************************************************
        *                                                           *
        *  Thank you very much for using Q-Chem.  Have a nice day.  *
        *                                                           *
        *************************************************************


