                  Welcome to Q-Chem
     A Quantum Leap Into The Future Of Chemistry


 Q-Chem 5.2 (devel), Q-Chem, Inc., Pleasanton, CA (2019)

 Yihan Shao,  Zhengting Gan,  E. Epifanovsky,  A. T. B. Gilbert,  M. Wormit,  
 J. Kussmann,  A. W. Lange,  A. Behn,  Jia Deng,  Xintian Feng,  D. Ghosh,  
 M. Goldey,  P. R. Horn,  L. D. Jacobson,  I. Kaliman,  T. Kus,  A. Landau,  
 Jie Liu,  E. I. Proynov,  R. M. Richard,  R. P. Steele,  E. J. Sundstrom,  
 H. L. Woodcock III,  P. M. Zimmerman,  D. Zuev,  B. Alam,  B. Albrecht,  
 E. Alguire,  S. A. Baeppler,  D. Barton,  Z. Benda,  Y. A. Bernard,  
 E. J. Berquist,  K. B. Bravaya,  H. Burton,  K. Carter-Fenk,  D. Casanova,  
 Chun-Min Chang,  Yunqing Chen,  A. Chien,  K. D. Closser,  M. P. Coons,  
 S. Coriani,  S. Dasgupta,  A. L. Dempwolff,  M. Diedenhofen,  Hainam Do,  
 R. G. Edgar,  Po-Tung Fang,  S. Faraji,  S. Fatehi,  Qingguo Feng,  
 J. Fosso-Tande,  J. Gayvert,  Qinghui Ge,  A. Ghysels,  G. Gidofalvi,  
 J. Gomes,  J. Gonthier,  A. Gunina,  D. Hait,  M. W. D. Hanson-Heine,  
 P. H. P. Harbach,  A. W. Hauser,  M. F. Herbst,  J. E. Herr,  
 E. G. Hohenstein,  Z. C. Holden,  Kerwin Hui,  B. C. Huynh,  T.-C. Jagau,  
 Hyunjun Ji,  B. Kaduk,  K. Khistyaev,  Jaehoon Kim,  P. Klunzinger,  K. Koh,  
 D. Kosenkov,  L. Koulias,  T. Kowalczyk,  C. M. Krauter,  A. Kunitsa,  
 Ka Un Lao,  A. Laurent,  K. V. Lawler,  Joonho Lee,  D. Lefrancois,  
 S. Lehtola,  D. S. Levine,  Yi-Pei Li,  You-Sheng Lin,  Fenglai Liu,  
 Kuan-Yu Liu,  E. Livshits,  M. Loipersberger,  A. Luenser,  P. Manohar,  
 E. Mansoor,  S. F. Manzer,  Shan-Ping Mao,  Yuezhi Mao,  N. Mardirossian,  
 A. V. Marenich,  T. Markovich,  L. A. Martinez-Martinez,  S. A. Maurer,  
 N. J. Mayhall,  S. C. McKenzie,  J.-M. Mewes,  P. Morgante,  A. F. Morrison,  
 J. W. Mullinax,  K. Nanda,  T. S. Nguyen-Beck,  R. Olivares-Amaya,  
 J. A. Parkhill,  S. K. Paul,  Zheng Pei,  T. M. Perrine,  F. Plasser,  
 P. Pokhilko,  S. Prager,  A. Prociuk,  E. Ramos,  B. Rana,  D. R. Rehn,  
 F. Rob,  M. Scheurer,  M. Schneider,  N. Sergueev,  S. M. Sharada,  
 S. Sharma,  D. W. Small,  T. Stauch,  C. J. Stein,  T. Stein,  Yu-Chuan Su,  
 S. P. Veccham,  A. J. W. Thom,  A. Tkatchenko,  T. Tsuchimochi,  
 N. M. Tubman,  L. Vogt,  M. L. Vidal,  O. Vydrov,  M. A. Watson,  J. Wenzel,  
 M. de Wergifosse,  T. A. Wesolowski,  A. White,  J. Witte,  A. Yamada,  
 Jun Yang,  K. Yao,  S. Yeganeh,  S. R. Yost,  Zhi-Qiang You,  A. Zech,  
 Igor Ying Zhang,  Xing Zhang,  Yan Zhao,  Ying Zhu,  B. R. Brooks,  
 G. K. L. Chan,  C. J. Cramer,  M. S. Gordon,  W. J. Hehre,  A. Klamt,  
 M. W. Schmidt,  C. D. Sherrill,  D. G. Truhlar,  A. Aspuru-Guzik,  R. Baer,  
 A. T. Bell,  N. A. Besley,  Jeng-Da Chai,  A. E. DePrince, III,  
 R. A. DiStasio Jr.,  A. Dreuw,  B. D. Dunietz,  T. R. Furlani,  
 Chao-Ping Hsu,  Yousung Jung,  Jing Kong,  D. S. Lambrecht,  WanZhen Liang,  
 C. Ochsenfeld,  V. A. Rassolov,  L. V. Slipchenko,  J. E. Subotnik,  
 T. Van Voorhis,  J. M. Herbert,  A. I. Krylov,  P. M. W. Gill,  M. Head-Gordon

 Contributors to earlier versions of Q-Chem not listed above: 
 R. D. Adamson,  B. Austin,  J. Baker,  G. J. O. Beran,  K. Brandhorst,  
 S. T. Brown,  E. F. C. Byrd,  A. K. Chakraborty,  C.-L. Cheng,  
 Siu Hung Chien,  D. M. Chipman,  D. L. Crittenden,  H. Dachsel,  
 R. J. Doerksen,  A. D. Dutoi,  L. Fusti-Molnar,  W. A. Goddard III,  
 A. Golubeva-Zadorozhnaya,  S. R. Gwaltney,  G. Hawkins,  A. Heyden,  
 S. Hirata,  G. Kedziora,  F. J. Keil,  C. Kelley,  Jihan Kim,  R. A. King,  
 R. Z. Khaliullin,  P. P. Korambath,  W. Kurlancheek,  A. M. Lee,  M. S. Lee,  
 S. V. Levchenko,  Ching Yeh Lin,  D. Liotard,  R. C. Lochan,  I. Lotan,  
 P. E. Maslen,  N. Nair,  D. P. O'Neill,  D. Neuhauser,  E. Neuscamman,  
 C. M. Oana,  R. Olson,  B. Peters,  R. Peverati,  P. A. Pieniazek,  
 Y. M. Rhee,  J. Ritchie,  M. A. Rohrdanz,  E. Rosta,  N. J. Russ,  
 H. F. Schaefer III,  N. E. Schultz,  N. Shenvi,  A. C. Simmonett,  A. Sodt,  
 D. Stuck,  K. S. Thanthiriwatte,  V. Vanovschi,  Tao Wang,  A. Warshel,  
 C. F. Williams,  Q. Wu,  X. Xu,  W. Zhang

 Please cite Q-Chem as follows:
 Y. Shao et al., Mol. Phys. 113, 184-215 (2015)
 DOI: 10.1080/00268976.2014.952696

 Q-Chem 5.2.2 for Intel X86 EM64T Linux

 Parts of Q-Chem use Armadillo 9.800.1 (Horizon Scraper).
 http://arma.sourceforge.net/

 Q-Chem begins on Sun Apr 12 08:06:19 2020  

Host: cn0821
0

     Scratch files written to /tmp/ypli/6721342.srvc1/qchem193216//
Warning:  Did not find "$end" marker in "$molecule" section

Checking the input file for inconsistencies... 	...done.

--------------------------------------------------------------
User input:
--------------------------------------------------------------
$rem
   JOBTYPE  sp
   EXCHANGE   omegaB97X-D
   BASIS   6-311+G(2df,2pd)
   max_scf_cycles   250
   geom_opt_max_cycles   1500
   basis2 6-31G*
   scf_algorithm rca_diis
   SYM_IGNORE  TRUE
   print_input   true
   geom_opt_dmax   80
   pop_mulliken false
   XC_GRID 000075000302
$end

$molecule
0 1
C       1.2687870822     0.0000298414     0.2737419923
C       0.0000002133     -0.0000850921     -0.5498887218
H       1.3058104775     -0.8873839233     0.9246975134
H       1.3058666205     0.8869616181     0.9242063225
H       2.1404935952     0.0000406550     -0.3250005797
C       -1.2687865326     0.0000300692     0.2737417103
H       0.0000003235     -1.0462477926     -1.3516984291
H       0.0000001714     1.0470364448     -1.3526592428
H       -1.3058102609     -0.8873864177     0.9246992874
H       -2.1404953728     0.0000412897     -0.3250024191
H       -1.3058663779     0.8869639735     0.9242075856
--------------------------------------------------------------
 ----------------------------------------------------------------
             Standard Nuclear Orientation (Angstroms)
    I     Atom           X                Y                Z
 ----------------------------------------------------------------
    1      C       1.2687870822     0.0000298414     0.2737419923
    2      C       0.0000002133    -0.0000850921    -0.5498887218
    3      H       1.3058104775    -0.8873839233     0.9246975134
    4      H       1.3058666205     0.8869616181     0.9242063225
    5      H       2.1404935952     0.0000406550    -0.3250005797
    6      C      -1.2687865326     0.0000300692     0.2737417103
    7      H       0.0000003235    -1.0462477926    -1.3516984291
    8      H       0.0000001714     1.0470364448    -1.3526592428
    9      H      -1.3058102609    -0.8873864177     0.9246992874
   10      H      -2.1404953728     0.0000412897    -0.3250024191
   11      H      -1.3058663779     0.8869639735     0.9242075856
 ----------------------------------------------------------------
 Nuclear Repulsion Energy =          81.49720313 hartrees
 There are       13 alpha and       13 beta electrons
 Requested basis set is 6-311+G(2df,2pd)
 There are 72 shells and 214 basis functions

 Total QAlloc Memory Limit   2000 MB
 Mega-Array Size       188 MB
 MEM_STATIC part       192 MB

                       Distance Matrix (Angstroms)
             C (  1)   C (  2)   H (  3)   H (  4)   H (  5)   C (  6)
   C (  2)  1.512676
   H (  3)  1.101189  2.160288
   H (  4)  1.100512  2.159883  1.774346
   H (  5)  1.057528  2.152275  1.745269  1.744634
   C (  6)  2.537574  1.512675  2.799964  2.799748  3.461457
   H (  7)  2.312266  1.318088  2.629136  3.259191  2.594328  2.312266
   H (  8)  2.313271  1.319433  3.260901  2.629644  2.594994  2.313271
   H (  9)  2.799965  2.160290  2.611621  3.157399  3.771775  1.101192
   H ( 10)  3.461459  2.152277  3.771776  3.771546  4.280989  1.057531
   H ( 11)  2.799750  2.159885  3.157399  2.611733  3.771545  1.100515
             H (  7)   H (  8)   H (  9)   H ( 10)
   H (  8)  2.093284
   H (  9)  2.629138  3.260904
   H ( 10)  2.594330  2.594995  1.745274
   H ( 11)  3.259194  2.629645  1.774350  1.744638
 
 A cutoff of  1.0D-09 yielded   2520 shell pairs
 There are     22454 function pairs (     27611 Cartesian)
 Smallest overlap matrix eigenvalue = 8.67E-05

 Scale SEOQF with 1.000000e-01/1.000000e-01/1.000000e-01

 Standard Electronic Orientation quadrupole field applied
 Nucleus-field energy     =     0.0000000006 hartrees
 Requested basis set is 6-31G(d)
 There are 28 shells and 58 basis functions
 A cutoff of  1.0D-09 yielded    402 shell pairs
 There are      1773 function pairs (      1968 Cartesian)
 Smallest overlap matrix eigenvalue = 7.16E-03
 Guess from superposition of atomic densities
 Warning:  Energy on first SCF cycle will be non-variational
 SAD guess density has 26.000000 electrons
 Long-range K will be added via erf
 Coulomb attenuation parameter = 0.2 bohr**(-1)
 A restricted hybrid HF-DFT SCF calculation will be
 performed using Relaxed Constraint Minimization + Pulay DIIS
 Exchange:     0.2220 Hartree-Fock + 1.0000 wB97X-D + LR-HF
 Correlation:  1.0000 wB97X-D
 Using Euler-Maclaurin-Lebedev (75,302) quadrature formula
 Dispersion:   Grimme D
 SCF converges when DIIS error is below 1.0E-04
 using 3 threads for integral computing
 -------------------------------------------------------
 OpenMP Integral computing Module                
 Release: version 1.0, May 2013, Q-Chem Inc. Pittsburgh 
 -------------------------------------------------------
 using 3 threads for integral computing
 -------------------------------------------------------
 OpenMP Integral computing Module                
 Release: version 1.0, May 2013, Q-Chem Inc. Pittsburgh 
 -------------------------------------------------------
 ---------------------------------------
  Cycle       Energy         DIIS Error
 ---------------------------------------
    1    -119.4185876019      9.56E-02
    2    -119.0274375985      8.74E-03
    3    -119.0472014458      2.38E-03
    4    -119.0604299736      1.68E-03
    5    -119.0611155563      2.19E-04 Done RCA. Switching to DIIS
    6    -119.0616742699      1.78E-04
    7    -119.0616885161      5.00E-06 Convergence criterion met
 ---------------------------------------
 SCF time:  CPU 31.89 s  wall 10.99 s
 SCF   energy in the small basis set = -119.06168852
 Total energy in the small basis set = -119.06168852
 ----------------------------------------------------
  Cycle       Energy    
 ----------------------------------------------------
    1     -16.4279222588     -1.64E+01
 Long-range K will be added via erf
 Coulomb attenuation parameter = 0.2 bohr**(-1)
 A restricted hybrid HF-DFT SCF calculation will be
 performed using Relaxed Constraint Minimization + Pulay DIIS
 Exchange:     0.2220 Hartree-Fock + 1.0000 wB97X-D + LR-HF
 Correlation:  1.0000 wB97X-D
 Using Euler-Maclaurin-Lebedev (75,302) quadrature formula
 Dispersion:   Grimme D
 SCF converges when DIIS error is below 1.0E-05
 Basis2 calculation detected. Using small basis as guess for larger.
 SCFMinFind is unable to tell whether the solution found is close.
 Resetting ReadMinima to 0 and attempting to follow guess.
 SCFMinFind following SCF Guess.
 using 3 threads for integral computing
 -------------------------------------------------------
 OpenMP Integral computing Module                
 Release: version 1.0, May 2013, Q-Chem Inc. Pittsburgh 
 -------------------------------------------------------
 using 3 threads for integral computing
 -------------------------------------------------------
 OpenMP Integral computing Module                
 Release: version 1.0, May 2013, Q-Chem Inc. Pittsburgh 
 -------------------------------------------------------
 ---------------------------------------
  Cycle       Energy         DIIS Error
 ---------------------------------------
    1    -119.0804017120      4.20E-03
    2    -119.1022520423      5.48E-04 Done RCA. Switching to DIIS
    3    -119.1029369286      3.98E-04
    4    -119.1038220571      5.48E-05
    5    -119.1038414612      2.05E-05
    6    -119.1038438938      4.10E-06 Convergence criterion met
 ---------------------------------------
 SCF time:  CPU 93.57 s  wall 31.59 s
 SCF   energy in the final basis set = -119.10384389
 Total energy in the final basis set = -119.10384389
 
 --------------------------------------------------------------
 
                    Orbital Energies (a.u.)
 --------------------------------------------------------------
 
 Alpha MOs
 -- Occupied --
-10.3181 -10.2683 -10.2683  -0.8789  -0.7851  -0.6524  -0.5327  -0.5312
 -0.4870  -0.4656  -0.4321  -0.4064  -0.3810
 -- Virtual --
  0.0687   0.0844   0.0865   0.0938   0.1234   0.1287   0.1326   0.1374
  0.1423   0.1687   0.1698   0.1910   0.2037   0.2205   0.2363   0.2390
  0.2762   0.2896   0.3051   0.3142   0.3254   0.3511   0.4507   0.4694
  0.4777   0.5079   0.5109   0.5143   0.5449   0.5509   0.5526   0.5774
  0.6190   0.6246   0.6278   0.6422   0.6435   0.6508   0.6645   0.7051
  0.7235   0.7536   0.8016   0.8501   0.8591   0.8620   0.9143   0.9379
  0.9988   1.0147   1.0544   1.1290   1.1509   1.1544   1.1689   1.1802
  1.1956   1.2024   1.2192   1.2434   1.2662   1.2872   1.3343   1.3713
  1.3801   1.4014   1.4035   1.4054   1.4373   1.4445   1.4620   1.4667
  1.4668   1.5289   1.5887   1.6208   1.6236   1.6313   1.6814   1.6903
  1.7048   2.3542   2.4246   2.4439   2.5258   2.5575   2.5959   2.6456
  2.6473   2.7211   2.7620   2.8302   2.8337   2.8344   2.8708   2.8776
  2.8987   2.9314   2.9363   2.9737   2.9978   3.0543   3.0846   3.0917
  3.1245   3.1400   3.1557   3.1793   3.2037   3.2066   3.2260   3.2280
  3.2375   3.3093   3.3230   3.3248   3.3503   3.3520   3.3590   3.3635
  3.4600   3.4636   3.4802   3.5110   3.5503   3.5526   3.5952   3.6021
  3.6298   3.6434   3.6443   3.6947   3.7340   3.7666   3.7996   3.8335
  3.8520   3.8772   3.9116   3.9139   3.9375   3.9585   3.9723   4.0068
  4.0151   4.0155   4.0739   4.0849   4.1146   4.1164   4.1339   4.1644
  4.2084   4.2163   4.2207   4.2422   4.3136   4.3253   4.3478   4.3662
  4.4110   4.4294   4.4385   4.5121   4.5282   4.5996   4.6048   4.7639
  4.7990   4.8447   4.8449   4.9030   4.9345   4.9808   4.9870   5.0094
  5.0179   5.1231   5.2171   5.2368   5.2574   5.2604   5.2886   5.2953
  5.3746   5.3948   5.4039   5.4152   5.4424   5.4490   5.4684   5.7421
  5.7626   5.8100   6.3549   6.3589   6.4335   6.4438  24.4788  25.4511
 25.4767
 --------------------------------------------------------------
 
 -----------------------------------------------------------------
                    Cartesian Multipole Moments
 -----------------------------------------------------------------
    Charge (ESU x 10^10)
                -0.0000
    Dipole Moment (Debye)
         X       0.0000      Y      -0.0007      Z       0.2713
       Tot       0.2713
    Quadrupole Moments (Debye-Ang)
        XX     -21.8624     XY      -0.0000     YY     -21.7465
        XZ       0.0000     YZ       0.0019     ZZ     -22.6052
    Octopole Moments (Debye-Ang^2)
       XXX       0.0000    XXY       0.0028    XYY       0.0000
       YYY      -0.0022    XXZ      -1.1192    XYZ       0.0000
       YYZ       0.7322    XZZ       0.0000    YZZ      -0.0025
       ZZZ       0.9943
    Hexadecapole Moments (Debye-Ang^3)
      XXXX    -196.4308   XXXY      -0.0000   XXYY     -42.6247
      XYYY       0.0000   YYYY     -50.5276   XXXZ       0.0000
      XXYZ       0.0075   XYYZ      -0.0000   YYYZ       0.0179
      XXZZ     -46.2360   XYZZ       0.0000   YYZZ     -18.8219
      XZZZ       0.0000   YZZZ       0.0192   ZZZZ     -80.6788
 -----------------------------------------------------------------
Archival summary:
1\1\cn0821\SP\ProcedureUnspecified\BasisUnspecified\38\r0852400\SunApr1208:07:062020SunApr1208:07:062020\0\\#,ProcedureUnspecified,BasisUnspecified,\\0,1\C\H,1,1.31809\H,1,1.31943,2,105.057\C,1,1.51268,2,109.346,3,117.256,0\H,4,1.05753,1,112.527,2,-57.2628,0\H,4,1.10051,1,110.496,2,-177.906,0\H,4,1.10119,1,110.488,2,63.3844,0\C,1,1.51268,2,109.346,3,-117.256,0\H,8,1.05753,1,112.527,2,57.2627,0\H,8,1.10051,1,110.496,2,177.906,0\H,8,1.10119,1,110.488,2,-63.3844,0\\\@

 Total job time:  46.73s(wall), 130.57s(cpu) 
 Sun Apr 12 08:07:06 2020

        *************************************************************
        *                                                           *
        *  Thank you very much for using Q-Chem.  Have a nice day.  *
        *                                                           *
        *************************************************************


