                  Welcome to Q-Chem
     A Quantum Leap Into The Future Of Chemistry


 Q-Chem 5.2 (devel), Q-Chem, Inc., Pleasanton, CA (2019)

 Yihan Shao,  Zhengting Gan,  E. Epifanovsky,  A. T. B. Gilbert,  M. Wormit,  
 J. Kussmann,  A. W. Lange,  A. Behn,  Jia Deng,  Xintian Feng,  D. Ghosh,  
 M. Goldey,  P. R. Horn,  L. D. Jacobson,  I. Kaliman,  T. Kus,  A. Landau,  
 Jie Liu,  E. I. Proynov,  R. M. Richard,  R. P. Steele,  E. J. Sundstrom,  
 H. L. Woodcock III,  P. M. Zimmerman,  D. Zuev,  B. Alam,  B. Albrecht,  
 E. Alguire,  S. A. Baeppler,  D. Barton,  Z. Benda,  Y. A. Bernard,  
 E. J. Berquist,  K. B. Bravaya,  H. Burton,  K. Carter-Fenk,  D. Casanova,  
 Chun-Min Chang,  Yunqing Chen,  A. Chien,  K. D. Closser,  M. P. Coons,  
 S. Coriani,  S. Dasgupta,  A. L. Dempwolff,  M. Diedenhofen,  Hainam Do,  
 R. G. Edgar,  Po-Tung Fang,  S. Faraji,  S. Fatehi,  Qingguo Feng,  
 J. Fosso-Tande,  J. Gayvert,  Qinghui Ge,  A. Ghysels,  G. Gidofalvi,  
 J. Gomes,  J. Gonthier,  A. Gunina,  D. Hait,  M. W. D. Hanson-Heine,  
 P. H. P. Harbach,  A. W. Hauser,  M. F. Herbst,  J. E. Herr,  
 E. G. Hohenstein,  Z. C. Holden,  Kerwin Hui,  B. C. Huynh,  T.-C. Jagau,  
 Hyunjun Ji,  B. Kaduk,  K. Khistyaev,  Jaehoon Kim,  P. Klunzinger,  K. Koh,  
 D. Kosenkov,  L. Koulias,  T. Kowalczyk,  C. M. Krauter,  A. Kunitsa,  
 Ka Un Lao,  A. Laurent,  K. V. Lawler,  Joonho Lee,  D. Lefrancois,  
 S. Lehtola,  D. S. Levine,  Yi-Pei Li,  You-Sheng Lin,  Fenglai Liu,  
 Kuan-Yu Liu,  E. Livshits,  M. Loipersberger,  A. Luenser,  P. Manohar,  
 E. Mansoor,  S. F. Manzer,  Shan-Ping Mao,  Yuezhi Mao,  N. Mardirossian,  
 A. V. Marenich,  T. Markovich,  L. A. Martinez-Martinez,  S. A. Maurer,  
 N. J. Mayhall,  S. C. McKenzie,  J.-M. Mewes,  P. Morgante,  A. F. Morrison,  
 J. W. Mullinax,  K. Nanda,  T. S. Nguyen-Beck,  R. Olivares-Amaya,  
 J. A. Parkhill,  S. K. Paul,  Zheng Pei,  T. M. Perrine,  F. Plasser,  
 P. Pokhilko,  S. Prager,  A. Prociuk,  E. Ramos,  B. Rana,  D. R. Rehn,  
 F. Rob,  M. Scheurer,  M. Schneider,  N. Sergueev,  S. M. Sharada,  
 S. Sharma,  D. W. Small,  T. Stauch,  C. J. Stein,  T. Stein,  Yu-Chuan Su,  
 S. P. Veccham,  A. J. W. Thom,  A. Tkatchenko,  T. Tsuchimochi,  
 N. M. Tubman,  L. Vogt,  M. L. Vidal,  O. Vydrov,  M. A. Watson,  J. Wenzel,  
 M. de Wergifosse,  T. A. Wesolowski,  A. White,  J. Witte,  A. Yamada,  
 Jun Yang,  K. Yao,  S. Yeganeh,  S. R. Yost,  Zhi-Qiang You,  A. Zech,  
 Igor Ying Zhang,  Xing Zhang,  Yan Zhao,  Ying Zhu,  B. R. Brooks,  
 G. K. L. Chan,  C. J. Cramer,  M. S. Gordon,  W. J. Hehre,  A. Klamt,  
 M. W. Schmidt,  C. D. Sherrill,  D. G. Truhlar,  A. Aspuru-Guzik,  R. Baer,  
 A. T. Bell,  N. A. Besley,  Jeng-Da Chai,  A. E. DePrince, III,  
 R. A. DiStasio Jr.,  A. Dreuw,  B. D. Dunietz,  T. R. Furlani,  
 Chao-Ping Hsu,  Yousung Jung,  Jing Kong,  D. S. Lambrecht,  WanZhen Liang,  
 C. Ochsenfeld,  V. A. Rassolov,  L. V. Slipchenko,  J. E. Subotnik,  
 T. Van Voorhis,  J. M. Herbert,  A. I. Krylov,  P. M. W. Gill,  M. Head-Gordon

 Contributors to earlier versions of Q-Chem not listed above: 
 R. D. Adamson,  B. Austin,  J. Baker,  G. J. O. Beran,  K. Brandhorst,  
 S. T. Brown,  E. F. C. Byrd,  A. K. Chakraborty,  C.-L. Cheng,  
 Siu Hung Chien,  D. M. Chipman,  D. L. Crittenden,  H. Dachsel,  
 R. J. Doerksen,  A. D. Dutoi,  L. Fusti-Molnar,  W. A. Goddard III,  
 A. Golubeva-Zadorozhnaya,  S. R. Gwaltney,  G. Hawkins,  A. Heyden,  
 S. Hirata,  G. Kedziora,  F. J. Keil,  C. Kelley,  Jihan Kim,  R. A. King,  
 R. Z. Khaliullin,  P. P. Korambath,  W. Kurlancheek,  A. M. Lee,  M. S. Lee,  
 S. V. Levchenko,  Ching Yeh Lin,  D. Liotard,  R. C. Lochan,  I. Lotan,  
 P. E. Maslen,  N. Nair,  D. P. O'Neill,  D. Neuhauser,  E. Neuscamman,  
 C. M. Oana,  R. Olson,  B. Peters,  R. Peverati,  P. A. Pieniazek,  
 Y. M. Rhee,  J. Ritchie,  M. A. Rohrdanz,  E. Rosta,  N. J. Russ,  
 H. F. Schaefer III,  N. E. Schultz,  N. Shenvi,  A. C. Simmonett,  A. Sodt,  
 D. Stuck,  K. S. Thanthiriwatte,  V. Vanovschi,  Tao Wang,  A. Warshel,  
 C. F. Williams,  Q. Wu,  X. Xu,  W. Zhang

 Please cite Q-Chem as follows:
 Y. Shao et al., Mol. Phys. 113, 184-215 (2015)
 DOI: 10.1080/00268976.2014.952696

 Q-Chem 5.2.2 for Intel X86 EM64T Linux

 Parts of Q-Chem use Armadillo 9.800.1 (Horizon Scraper).
 http://arma.sourceforge.net/

 Q-Chem begins on Sun Apr 12 05:52:25 2020  

Host: cn0821
0

     Scratch files written to /tmp/ypli/6721342.srvc1/qchem172757//
Warning:  Did not find "$end" marker in "$molecule" section

Checking the input file for inconsistencies... 	...done.

--------------------------------------------------------------
User input:
--------------------------------------------------------------
$rem
   JOBTYPE  sp
   EXCHANGE   omegaB97X-D
   BASIS   6-311+G(2df,2pd)
   max_scf_cycles   250
   geom_opt_max_cycles   1500
   basis2 6-31G*
   scf_algorithm rca_diis
   SYM_IGNORE  TRUE
   print_input   true
   geom_opt_dmax   80
   pop_mulliken false
   XC_GRID 000075000302
$end

$molecule
0 1
C       1.3914615733     0.0057021651     0.2588398576
C       -0.0000000995     0.0028917036     -0.7566846020
H       1.2915689205     -0.8662499737     0.9112487332
H       1.3016413030     0.8667064760     0.9259452465
H       2.4086323268     -0.0048933755     -0.1380573154
C       -1.3914622139     0.0057019363     0.2588391265
H       0.0000010733     -0.8787705369     -1.4015035142
H       -0.0000000585     0.8733478974     -1.4167194035
H       -1.2915687547     -0.8662493543     0.9112490118
H       -2.4086335699     -0.0048925624     -0.1380564222
H       -1.3016405611     0.8667062905     0.9259443006
--------------------------------------------------------------
 ----------------------------------------------------------------
             Standard Nuclear Orientation (Angstroms)
    I     Atom           X                Y                Z
 ----------------------------------------------------------------
    1      C       1.3914615733     0.0057021651     0.2588398576
    2      C      -0.0000000995     0.0028917036    -0.7566846020
    3      H       1.2915689205    -0.8662499737     0.9112487332
    4      H       1.3016413030     0.8667064760     0.9259452465
    5      H       2.4086323268    -0.0048933755    -0.1380573154
    6      C      -1.3914622139     0.0057019363     0.2588391265
    7      H       0.0000010733    -0.8787705369    -1.4015035142
    8      H      -0.0000000585     0.8733478974    -1.4167194035
    9      H      -1.2915687547    -0.8662493543     0.9112490118
   10      H      -2.4086335699    -0.0048925624    -0.1380564222
   11      H      -1.3016405611     0.8667062905     0.9259443006
 ----------------------------------------------------------------
 Nuclear Repulsion Energy =          77.47763820 hartrees
 There are       13 alpha and       13 beta electrons
 Requested basis set is 6-311+G(2df,2pd)
 There are 72 shells and 214 basis functions

 Total QAlloc Memory Limit   2000 MB
 Mega-Array Size       188 MB
 MEM_STATIC part       192 MB

                       Distance Matrix (Angstroms)
             C (  1)   C (  2)   H (  3)   H (  4)   H (  5)   C (  6)
   C (  2)  1.722633
   H (  3)  1.093580  2.281570
   H (  4)  1.092898  2.296016  1.733048
   H (  5)  1.091914  2.486819  1.758070  1.765564
   C (  6)  2.782924  1.722633  2.895616  2.905024  3.820780
   H (  7)  2.339913  1.092300  2.648986  3.187158  2.856827  2.339914
   H (  8)  2.344456  1.092401  3.180218  2.679999  2.864925  2.344456
   H (  9)  2.895615  2.281569  2.583138  3.118989  3.941379  1.093580
   H ( 10)  3.820780  2.486821  3.941380  3.957009  4.817266  1.091914
   H ( 11)  2.905022  2.296015  3.118988  2.603282  3.957008  1.092898
             H (  7)   H (  8)   H (  9)   H ( 10)
   H (  8)  1.752185
   H (  9)  2.648987  3.180218
   H ( 10)  2.856831  2.864926  1.758070
   H ( 11)  3.187158  2.679997  1.733047  1.765564
 
 A cutoff of  1.0D-09 yielded   2508 shell pairs
 There are     22390 function pairs (     27511 Cartesian)
 Smallest overlap matrix eigenvalue = 1.82E-04

 Scale SEOQF with 1.000000e-01/1.000000e-01/1.000000e-01

 Standard Electronic Orientation quadrupole field applied
 Nucleus-field energy     =     0.0000000006 hartrees
 Requested basis set is 6-31G(d)
 There are 28 shells and 58 basis functions
 A cutoff of  1.0D-09 yielded    402 shell pairs
 There are      1773 function pairs (      1968 Cartesian)
 Smallest overlap matrix eigenvalue = 1.13E-02
 Guess from superposition of atomic densities
 Warning:  Energy on first SCF cycle will be non-variational
 SAD guess density has 26.000000 electrons
 Long-range K will be added via erf
 Coulomb attenuation parameter = 0.2 bohr**(-1)
 A restricted hybrid HF-DFT SCF calculation will be
 performed using Relaxed Constraint Minimization + Pulay DIIS
 Exchange:     0.2220 Hartree-Fock + 1.0000 wB97X-D + LR-HF
 Correlation:  1.0000 wB97X-D
 Using Euler-Maclaurin-Lebedev (75,302) quadrature formula
 Dispersion:   Grimme D
 SCF converges when DIIS error is below 1.0E-04
 using 3 threads for integral computing
 -------------------------------------------------------
 OpenMP Integral computing Module                
 Release: version 1.0, May 2013, Q-Chem Inc. Pittsburgh 
 -------------------------------------------------------
 using 3 threads for integral computing
 -------------------------------------------------------
 OpenMP Integral computing Module                
 Release: version 1.0, May 2013, Q-Chem Inc. Pittsburgh 
 -------------------------------------------------------
 ---------------------------------------
  Cycle       Energy         DIIS Error
 ---------------------------------------
    1    -119.1679628299      8.70E-02
    2    -119.0407581155      7.50E-03
    3    -119.0560528765      2.45E-03
    4    -119.0648319653      1.71E-03
    5    -119.0655545735      2.87E-04 Done RCA. Switching to DIIS
    6    -119.0660719509      2.30E-04
    7    -119.0660946928      4.10E-06 Convergence criterion met
 ---------------------------------------
 SCF time:  CPU 33.28 s  wall 11.49 s
 SCF   energy in the small basis set = -119.06609469
 Total energy in the small basis set = -119.06609469
 ----------------------------------------------------
  Cycle       Energy    
 ----------------------------------------------------
    1     -16.3984743246     -1.64E+01
 Long-range K will be added via erf
 Coulomb attenuation parameter = 0.2 bohr**(-1)
 A restricted hybrid HF-DFT SCF calculation will be
 performed using Relaxed Constraint Minimization + Pulay DIIS
 Exchange:     0.2220 Hartree-Fock + 1.0000 wB97X-D + LR-HF
 Correlation:  1.0000 wB97X-D
 Using Euler-Maclaurin-Lebedev (75,302) quadrature formula
 Dispersion:   Grimme D
 SCF converges when DIIS error is below 1.0E-05
 Basis2 calculation detected. Using small basis as guess for larger.
 SCFMinFind is unable to tell whether the solution found is close.
 Resetting ReadMinima to 0 and attempting to follow guess.
 SCFMinFind following SCF Guess.
 using 3 threads for integral computing
 -------------------------------------------------------
 OpenMP Integral computing Module                
 Release: version 1.0, May 2013, Q-Chem Inc. Pittsburgh 
 -------------------------------------------------------
 using 3 threads for integral computing
 -------------------------------------------------------
 OpenMP Integral computing Module                
 Release: version 1.0, May 2013, Q-Chem Inc. Pittsburgh 
 -------------------------------------------------------
 ---------------------------------------
  Cycle       Energy         DIIS Error
 ---------------------------------------
    1    -119.0846305936      4.22E-03
    2    -119.1068545126      5.81E-04 Done RCA. Switching to DIIS
    3    -119.1077466048      3.84E-04
    4    -119.1085722220      4.15E-05
    5    -119.1085852875      8.69E-06 Convergence criterion met
 ---------------------------------------
 SCF time:  CPU 80.68 s  wall 27.33 s

 Q-Chem warning in module 0, line  198:

 OriOrb: Failure to resolve orbital degeneracies.


 Q-Chem warning in module 0, line  198:

 OriOrb: Failure to resolve orbital degeneracies.

 SCF   energy in the final basis set = -119.10858529
 Total energy in the final basis set = -119.10858529
 
 --------------------------------------------------------------
 
                    Orbital Energies (a.u.)
 --------------------------------------------------------------
 
 Alpha MOs
 -- Occupied --
-10.3058 -10.2811 -10.2811  -0.8384  -0.7682  -0.6956  -0.5218  -0.5104
 -0.4641  -0.4593  -0.4258  -0.4119  -0.4088
 -- Virtual --
  0.0700   0.0814   0.0867   0.1039   0.1228   0.1300   0.1333   0.1424
  0.1456   0.1655   0.1723   0.1924   0.2180   0.2193   0.2477   0.2517
  0.2569   0.2641   0.2816   0.2884   0.3308   0.3339   0.4469   0.4567
  0.4717   0.5066   0.5191   0.5339   0.5610   0.5636   0.5773   0.5864
  0.5894   0.5909   0.6194   0.6251   0.6443   0.6460   0.7058   0.7096
  0.7223   0.7535   0.7841   0.8074   0.8495   0.8698   0.9055   0.9435
  1.0093   1.0109   1.0190   1.0757   1.1117   1.1678   1.1912   1.1943
  1.1968   1.2015   1.2295   1.2338   1.2532   1.2855   1.2910   1.2949
  1.3030   1.3652   1.3801   1.4289   1.4532   1.4608   1.4632   1.4806
  1.4991   1.5252   1.5932   1.6162   1.6172   1.6540   1.6728   1.6741
  1.7334   2.3665   2.3838   2.4540   2.4634   2.4832   2.4973   2.5483
  2.5597   2.6008   2.6967   2.7190   2.8054   2.8471   2.8495   2.9302
  2.9320   2.9338   2.9705   3.0265   3.0378   3.0694   3.0807   3.1040
  3.1050   3.1430   3.1536   3.1622   3.1677   3.2076   3.2548   3.2591
  3.2937   3.3096   3.3371   3.3375   3.3401   3.3466   3.3513   3.3714
  3.3785   3.3919   3.4395   3.5043   3.5569   3.5583   3.5605   3.5856
  3.6115   3.6150   3.6452   3.6795   3.6830   3.6863   3.7191   3.7880
  3.7915   3.8241   3.8721   3.8841   3.8972   3.9256   3.9931   3.9944
  4.0162   4.0287   4.0657   4.0689   4.0964   4.1100   4.1447   4.1910
  4.1976   4.2089   4.2467   4.2541   4.2917   4.3038   4.3189   4.3672
  4.3858   4.4359   4.4773   4.5358   4.5819   4.6777   4.8101   4.8326
  4.8555   4.8870   4.9227   4.9276   4.9835   5.0000   5.0114   5.0667
  5.0895   5.1369   5.1752   5.1906   5.1960   5.2003   5.2332   5.2819
  5.2963   5.3232   5.3261   5.3547   5.3694   5.4024   5.4468   5.5350
  5.6739   6.3521   6.3756   6.3905   6.4249   6.4250  24.9633  25.3232
 25.3640
 --------------------------------------------------------------
 
 -----------------------------------------------------------------
                    Cartesian Multipole Moments
 -----------------------------------------------------------------
    Charge (ESU x 10^10)
                -0.0000
    Dipole Moment (Debye)
         X       0.0000      Y      -0.0161      Z       0.0586
       Tot       0.0607
    Quadrupole Moments (Debye-Ang)
        XX     -21.2726     XY      -0.0000     YY     -21.7783
        XZ      -0.0000     YZ       0.0348     ZZ     -21.9171
    Octopole Moments (Debye-Ang^2)
       XXX      -0.0000    XXY      -0.1286    XYY       0.0000
       YYY      -0.2218    XXZ       0.2592    XYZ       0.0000
       YYZ       1.0725    XZZ       0.0000    YZZ      -0.0007
       ZZZ       1.5809
    Hexadecapole Moments (Debye-Ang^3)
      XXXX    -217.7595   XXXY      -0.0000   XXYY     -48.3436
      XYYY      -0.0000   YYYY     -44.3104   XXXZ      -0.0000
      XXYZ       0.0857   XYYZ      -0.0000   YYYZ      -0.0082
      XXZZ     -54.3563   XYZZ       0.0000   YYZZ     -18.2721
      XZZZ      -0.0000   YZZZ       0.0036   ZZZZ     -82.3703
 -----------------------------------------------------------------
Archival summary:
1\1\cn0821\SP\ProcedureUnspecified\BasisUnspecified\38\r0852400\SunApr1205:53:092020SunApr1205:53:092020\0\\#,ProcedureUnspecified,BasisUnspecified,\\0,1\C\H,1,1.0923\H,1,1.0924,2,106.648\C,1,1.72263,2,110.446,3,120.451,0\H,4,1.09191,1,122.559,2,-58.6899,0\H,4,1.0929,1,107.142,2,176.072,0\H,4,1.09358,1,106.058,2,64.4734,0\C,1,1.72263,2,110.446,3,-120.451,0\H,8,1.09191,1,122.559,2,58.6898,0\H,8,1.0929,1,107.142,2,-176.072,0\H,8,1.09358,1,106.058,2,-64.4734,0\\\@

 Total job time:  44.02s(wall), 122.08s(cpu) 
 Sun Apr 12 05:53:09 2020

        *************************************************************
        *                                                           *
        *  Thank you very much for using Q-Chem.  Have a nice day.  *
        *                                                           *
        *************************************************************


