                  Welcome to Q-Chem
     A Quantum Leap Into The Future Of Chemistry


 Q-Chem 5.2 (devel), Q-Chem, Inc., Pleasanton, CA (2019)

 Yihan Shao,  Zhengting Gan,  E. Epifanovsky,  A. T. B. Gilbert,  M. Wormit,  
 J. Kussmann,  A. W. Lange,  A. Behn,  Jia Deng,  Xintian Feng,  D. Ghosh,  
 M. Goldey,  P. R. Horn,  L. D. Jacobson,  I. Kaliman,  T. Kus,  A. Landau,  
 Jie Liu,  E. I. Proynov,  R. M. Richard,  R. P. Steele,  E. J. Sundstrom,  
 H. L. Woodcock III,  P. M. Zimmerman,  D. Zuev,  B. Alam,  B. Albrecht,  
 E. Alguire,  S. A. Baeppler,  D. Barton,  Z. Benda,  Y. A. Bernard,  
 E. J. Berquist,  K. B. Bravaya,  H. Burton,  K. Carter-Fenk,  D. Casanova,  
 Chun-Min Chang,  Yunqing Chen,  A. Chien,  K. D. Closser,  M. P. Coons,  
 S. Coriani,  S. Dasgupta,  A. L. Dempwolff,  M. Diedenhofen,  Hainam Do,  
 R. G. Edgar,  Po-Tung Fang,  S. Faraji,  S. Fatehi,  Qingguo Feng,  
 J. Fosso-Tande,  J. Gayvert,  Qinghui Ge,  A. Ghysels,  G. Gidofalvi,  
 J. Gomes,  J. Gonthier,  A. Gunina,  D. Hait,  M. W. D. Hanson-Heine,  
 P. H. P. Harbach,  A. W. Hauser,  M. F. Herbst,  J. E. Herr,  
 E. G. Hohenstein,  Z. C. Holden,  Kerwin Hui,  B. C. Huynh,  T.-C. Jagau,  
 Hyunjun Ji,  B. Kaduk,  K. Khistyaev,  Jaehoon Kim,  P. Klunzinger,  K. Koh,  
 D. Kosenkov,  L. Koulias,  T. Kowalczyk,  C. M. Krauter,  A. Kunitsa,  
 Ka Un Lao,  A. Laurent,  K. V. Lawler,  Joonho Lee,  D. Lefrancois,  
 S. Lehtola,  D. S. Levine,  Yi-Pei Li,  You-Sheng Lin,  Fenglai Liu,  
 Kuan-Yu Liu,  E. Livshits,  M. Loipersberger,  A. Luenser,  P. Manohar,  
 E. Mansoor,  S. F. Manzer,  Shan-Ping Mao,  Yuezhi Mao,  N. Mardirossian,  
 A. V. Marenich,  T. Markovich,  L. A. Martinez-Martinez,  S. A. Maurer,  
 N. J. Mayhall,  S. C. McKenzie,  J.-M. Mewes,  P. Morgante,  A. F. Morrison,  
 J. W. Mullinax,  K. Nanda,  T. S. Nguyen-Beck,  R. Olivares-Amaya,  
 J. A. Parkhill,  S. K. Paul,  Zheng Pei,  T. M. Perrine,  F. Plasser,  
 P. Pokhilko,  S. Prager,  A. Prociuk,  E. Ramos,  B. Rana,  D. R. Rehn,  
 F. Rob,  M. Scheurer,  M. Schneider,  N. Sergueev,  S. M. Sharada,  
 S. Sharma,  D. W. Small,  T. Stauch,  C. J. Stein,  T. Stein,  Yu-Chuan Su,  
 S. P. Veccham,  A. J. W. Thom,  A. Tkatchenko,  T. Tsuchimochi,  
 N. M. Tubman,  L. Vogt,  M. L. Vidal,  O. Vydrov,  M. A. Watson,  J. Wenzel,  
 M. de Wergifosse,  T. A. Wesolowski,  A. White,  J. Witte,  A. Yamada,  
 Jun Yang,  K. Yao,  S. Yeganeh,  S. R. Yost,  Zhi-Qiang You,  A. Zech,  
 Igor Ying Zhang,  Xing Zhang,  Yan Zhao,  Ying Zhu,  B. R. Brooks,  
 G. K. L. Chan,  C. J. Cramer,  M. S. Gordon,  W. J. Hehre,  A. Klamt,  
 M. W. Schmidt,  C. D. Sherrill,  D. G. Truhlar,  A. Aspuru-Guzik,  R. Baer,  
 A. T. Bell,  N. A. Besley,  Jeng-Da Chai,  A. E. DePrince, III,  
 R. A. DiStasio Jr.,  A. Dreuw,  B. D. Dunietz,  T. R. Furlani,  
 Chao-Ping Hsu,  Yousung Jung,  Jing Kong,  D. S. Lambrecht,  WanZhen Liang,  
 C. Ochsenfeld,  V. A. Rassolov,  L. V. Slipchenko,  J. E. Subotnik,  
 T. Van Voorhis,  J. M. Herbert,  A. I. Krylov,  P. M. W. Gill,  M. Head-Gordon

 Contributors to earlier versions of Q-Chem not listed above: 
 R. D. Adamson,  B. Austin,  J. Baker,  G. J. O. Beran,  K. Brandhorst,  
 S. T. Brown,  E. F. C. Byrd,  A. K. Chakraborty,  C.-L. Cheng,  
 Siu Hung Chien,  D. M. Chipman,  D. L. Crittenden,  H. Dachsel,  
 R. J. Doerksen,  A. D. Dutoi,  L. Fusti-Molnar,  W. A. Goddard III,  
 A. Golubeva-Zadorozhnaya,  S. R. Gwaltney,  G. Hawkins,  A. Heyden,  
 S. Hirata,  G. Kedziora,  F. J. Keil,  C. Kelley,  Jihan Kim,  R. A. King,  
 R. Z. Khaliullin,  P. P. Korambath,  W. Kurlancheek,  A. M. Lee,  M. S. Lee,  
 S. V. Levchenko,  Ching Yeh Lin,  D. Liotard,  R. C. Lochan,  I. Lotan,  
 P. E. Maslen,  N. Nair,  D. P. O'Neill,  D. Neuhauser,  E. Neuscamman,  
 C. M. Oana,  R. Olson,  B. Peters,  R. Peverati,  P. A. Pieniazek,  
 Y. M. Rhee,  J. Ritchie,  M. A. Rohrdanz,  E. Rosta,  N. J. Russ,  
 H. F. Schaefer III,  N. E. Schultz,  N. Shenvi,  A. C. Simmonett,  A. Sodt,  
 D. Stuck,  K. S. Thanthiriwatte,  V. Vanovschi,  Tao Wang,  A. Warshel,  
 C. F. Williams,  Q. Wu,  X. Xu,  W. Zhang

 Please cite Q-Chem as follows:
 Y. Shao et al., Mol. Phys. 113, 184-215 (2015)
 DOI: 10.1080/00268976.2014.952696

 Q-Chem 5.2.2 for Intel X86 EM64T Linux

 Parts of Q-Chem use Armadillo 9.800.1 (Horizon Scraper).
 http://arma.sourceforge.net/

 Q-Chem begins on Sun Apr 12 08:03:02 2020  

Host: cn0821
0

     Scratch files written to /tmp/ypli/6721342.srvc1/qchem192742//
Warning:  Did not find "$end" marker in "$molecule" section

Checking the input file for inconsistencies... 	...done.

--------------------------------------------------------------
User input:
--------------------------------------------------------------
$rem
   JOBTYPE  sp
   EXCHANGE   omegaB97X-D
   BASIS   6-311+G(2df,2pd)
   max_scf_cycles   250
   geom_opt_max_cycles   1500
   basis2 6-31G*
   scf_algorithm rca_diis
   SYM_IGNORE  TRUE
   print_input   true
   geom_opt_dmax   80
   pop_mulliken false
   XC_GRID 000075000302
$end

$molecule
0 1
C       1.2754587776     -0.0000033305     0.2806352019
C       0.0000010860     0.0000195095     -0.5742468129
H       1.3033421625     -0.7720259871     0.8409723924
H       1.3033443289     0.7720925887     0.8410501541
H       2.0736755944     -0.0000176230     -0.2794936194
C       -1.2754561934     -0.0000030095     0.2806333524
H       0.0000013392     -0.8694997511     -1.2255893814
H       0.0000013931     0.8693894079     -1.2254520176
H       -1.3033411035     -0.7720397420     0.8409812958
H       -2.0736843932     -0.0000166344     -0.2795033897
H       -1.3033430522     0.7721052374     0.8410578433
--------------------------------------------------------------
 ----------------------------------------------------------------
             Standard Nuclear Orientation (Angstroms)
    I     Atom           X                Y                Z
 ----------------------------------------------------------------
    1      C       1.2754587776    -0.0000033305     0.2806352019
    2      C       0.0000010860     0.0000195095    -0.5742468129
    3      H       1.3033421625    -0.7720259871     0.8409723924
    4      H       1.3033443289     0.7720925887     0.8410501541
    5      H       2.0736755944    -0.0000176230    -0.2794936194
    6      C      -1.2754561934    -0.0000030095     0.2806333524
    7      H       0.0000013392    -0.8694997511    -1.2255893814
    8      H       0.0000013931     0.8693894079    -1.2254520176
    9      H      -1.3033411035    -0.7720397420     0.8409812958
   10      H      -2.0736843932    -0.0000166344    -0.2795033897
   11      H      -1.3033430522     0.7721052374     0.8410578433
 ----------------------------------------------------------------
 Nuclear Repulsion Energy =          85.73868408 hartrees
 There are       13 alpha and       13 beta electrons
 Requested basis set is 6-311+G(2df,2pd)
 There are 72 shells and 214 basis functions

 Total QAlloc Memory Limit   2000 MB
 Mega-Array Size       188 MB
 MEM_STATIC part       192 MB

                       Distance Matrix (Angstroms)
             C (  1)   C (  2)   H (  3)   H (  4)   H (  5)   C (  6)
   C (  2)  1.535453
   H (  3)  0.954345  2.073065
   H (  4)  0.954450  2.073130  1.544119
   H (  5)  0.975138  2.094518  1.563603  1.563708
   C (  6)  2.550915  1.535452  2.749582  2.749620  3.395648
   H (  7)  2.156740  1.086421  2.445174  2.943557  2.439513  2.156739
   H (  8)  2.156602  1.086219  2.943306  2.445118  2.439432  2.156601
   H (  9)  2.749588  2.073077  2.606683  3.029712  3.640841  0.954363
   H ( 10)  3.395661  2.094527  3.640848  3.640895  4.147360  0.975152
   H ( 11)  2.749626  2.073140  3.029711  2.606687  3.640888  0.954466
             H (  7)   H (  8)   H (  9)   H ( 10)
   H (  8)  1.738889
   H (  9)  2.445182  2.943321
   H ( 10)  2.439519  2.439438  1.563629
   H ( 11)  2.943570  2.445125  1.544145  1.563731
 
 A cutoff of  1.0D-09 yielded   2544 shell pairs
 There are     22618 function pairs (     27805 Cartesian)
 Smallest overlap matrix eigenvalue = 9.29E-05

 Scale SEOQF with 1.000000e-01/1.000000e-01/1.000000e-01

 Standard Electronic Orientation quadrupole field applied
 Nucleus-field energy     =     0.0000000006 hartrees
 Requested basis set is 6-31G(d)
 There are 28 shells and 58 basis functions
 A cutoff of  1.0D-09 yielded    402 shell pairs
 There are      1773 function pairs (      1968 Cartesian)
 Smallest overlap matrix eigenvalue = 6.27E-03
 Guess from superposition of atomic densities
 Warning:  Energy on first SCF cycle will be non-variational
 SAD guess density has 26.000000 electrons
 Long-range K will be added via erf
 Coulomb attenuation parameter = 0.2 bohr**(-1)
 A restricted hybrid HF-DFT SCF calculation will be
 performed using Relaxed Constraint Minimization + Pulay DIIS
 Exchange:     0.2220 Hartree-Fock + 1.0000 wB97X-D + LR-HF
 Correlation:  1.0000 wB97X-D
 Using Euler-Maclaurin-Lebedev (75,302) quadrature formula
 Dispersion:   Grimme D
 SCF converges when DIIS error is below 1.0E-04
 using 3 threads for integral computing
 -------------------------------------------------------
 OpenMP Integral computing Module                
 Release: version 1.0, May 2013, Q-Chem Inc. Pittsburgh 
 -------------------------------------------------------
 using 3 threads for integral computing
 -------------------------------------------------------
 OpenMP Integral computing Module                
 Release: version 1.0, May 2013, Q-Chem Inc. Pittsburgh 
 -------------------------------------------------------
 ---------------------------------------
  Cycle       Energy         DIIS Error
 ---------------------------------------
    1    -120.0262740667      1.17E-01
    2    -118.9556602223      1.20E-02
    3    -118.9933029887      4.08E-03
    4    -119.0120111738      2.67E-03
    5    -119.0137789493      6.49E-04 Done RCA. Switching to DIIS
    6    -119.0147978119      4.36E-04
    7    -119.0148744072      7.56E-06 Convergence criterion met
 ---------------------------------------
 SCF time:  CPU 32.92 s  wall 11.37 s
 SCF   energy in the small basis set = -119.01487441
 Total energy in the small basis set = -119.01487441
 ----------------------------------------------------
  Cycle       Energy    
 ----------------------------------------------------
    1     -16.8260212976     -1.68E+01
 Long-range K will be added via erf
 Coulomb attenuation parameter = 0.2 bohr**(-1)
 A restricted hybrid HF-DFT SCF calculation will be
 performed using Relaxed Constraint Minimization + Pulay DIIS
 Exchange:     0.2220 Hartree-Fock + 1.0000 wB97X-D + LR-HF
 Correlation:  1.0000 wB97X-D
 Using Euler-Maclaurin-Lebedev (75,302) quadrature formula
 Dispersion:   Grimme D
 SCF converges when DIIS error is below 1.0E-05
 Basis2 calculation detected. Using small basis as guess for larger.
 SCFMinFind is unable to tell whether the solution found is close.
 Resetting ReadMinima to 0 and attempting to follow guess.
 SCFMinFind following SCF Guess.
 using 3 threads for integral computing
 -------------------------------------------------------
 OpenMP Integral computing Module                
 Release: version 1.0, May 2013, Q-Chem Inc. Pittsburgh 
 -------------------------------------------------------
 using 3 threads for integral computing
 -------------------------------------------------------
 OpenMP Integral computing Module                
 Release: version 1.0, May 2013, Q-Chem Inc. Pittsburgh 
 -------------------------------------------------------
 ---------------------------------------
  Cycle       Energy         DIIS Error
 ---------------------------------------
    1    -119.0411607406      4.24E-03
    2    -119.0636181482      6.43E-04 Done RCA. Switching to DIIS
    3    -119.0646680750      4.07E-04
    4    -119.0655208050      4.53E-05
    5    -119.0655333866      1.42E-05
    6    -119.0655345131      3.99E-06 Convergence criterion met
 ---------------------------------------
 SCF time:  CPU 99.11 s  wall 33.49 s

 Q-Chem warning in module 0, line  198:

 OriOrb: Failure to resolve orbital degeneracies.


 Q-Chem warning in module 0, line  198:

 OriOrb: Failure to resolve orbital degeneracies.

 SCF   energy in the final basis set = -119.06553451
 Total energy in the final basis set = -119.06553451
 
 --------------------------------------------------------------
 
                    Orbital Energies (a.u.)
 --------------------------------------------------------------
 
 Alpha MOs
 -- Occupied --
-10.2671 -10.2179 -10.2179  -0.8913  -0.8118  -0.6970  -0.5574  -0.5377
 -0.5014  -0.4927  -0.4212  -0.4200  -0.4165
 -- Virtual --
  0.0700   0.0861   0.0919   0.1000   0.1259   0.1305   0.1329   0.1441
  0.1485   0.1758   0.1766   0.1935   0.2608   0.2624   0.2706   0.2800
  0.3013   0.3031   0.3112   0.3226   0.3450   0.3727   0.4519   0.4653
  0.4686   0.5151   0.5193   0.5228   0.5512   0.5827   0.6061   0.6350
  0.6369   0.6429   0.6743   0.6759   0.6763   0.6857   0.7357   0.7748
  0.7899   0.8036   0.8523   0.8775   0.8902   0.8955   0.9004   1.0141
  1.0644   1.0763   1.0836   1.1776   1.1826   1.2063   1.2297   1.2431
  1.2607   1.2659   1.3062   1.3065   1.3072   1.3078   1.3495   1.3986
  1.4127   1.4202   1.4404   1.4749   1.4762   1.5019   1.5176   1.5514
  1.5698   1.6341   1.6421   1.6454   1.6950   1.7327   1.7397   1.8355
  1.8387   2.3008   2.4011   2.4121   2.4164   2.5102   2.5364   2.5916
  2.6090   2.7148   2.8191   2.8830   2.9052   2.9126   2.9770   3.0078
  3.0164   3.0325   3.0388   3.0686   3.0876   3.1112   3.1587   3.1682
  3.1778   3.1903   3.1973   3.2150   3.2382   3.2806   3.3033   3.3252
  3.3668   3.3727   3.3874   3.4119   3.4207   3.4571   3.4794   3.4830
  3.5237   3.5368   3.5451   3.5496   3.5995   3.6463   3.6663   3.6766
  3.7019   3.7112   3.7590   3.7770   3.8069   3.8454   3.9127   3.9130
  3.9711   4.0047   4.0087   4.0200   4.0303   4.0729   4.1054   4.1328
  4.1384   4.1824   4.1875   4.2401   4.2423   4.2461   4.3552   4.3601
  4.4019   4.4314   4.4414   4.4532   4.4777   4.5698   4.5723   4.6001
  4.6554   4.7186   4.7318   4.7323   4.8661   4.9962   5.0259   5.0382
  5.1061   5.1731   5.1957   5.2207   5.3518   5.4405   5.4514   5.4618
  5.4778   5.4951   5.6112   5.6229   5.6628   5.6670   5.6872   5.7012
  5.7682   5.8027   5.8523   5.8670   5.8774   5.8815   5.9293   6.0319
  6.0666   6.4832   6.7161   6.7283   6.7436   6.7466  25.2193  25.7641
 25.7742
 --------------------------------------------------------------
 
 -----------------------------------------------------------------
                    Cartesian Multipole Moments
 -----------------------------------------------------------------
    Charge (ESU x 10^10)
                -0.0000
    Dipole Moment (Debye)
         X       0.0000      Y       0.0000      Z       0.1007
       Tot       0.1007
    Quadrupole Moments (Debye-Ang)
        XX     -21.1275     XY      -0.0000     YY     -20.7551
        XZ       0.0000     YZ      -0.0001     ZZ     -21.1788
    Octopole Moments (Debye-Ang^2)
       XXX       0.0002    XXY      -0.0005    XYY       0.0001
       YYY      -0.0000    XXZ      -0.7477    XYZ       0.0000
       YYZ       0.3093    XZZ       0.0001    YZZ       0.0001
       ZZZ       0.3460
    Hexadecapole Moments (Debye-Ang^3)
      XXXX    -187.7109   XXXY      -0.0000   XXYY     -38.4788
      XYYY       0.0000   YYYY     -38.1437   XXXZ       0.0002
      XXYZ      -0.0008   XYYZ      -0.0000   YYYZ      -0.0019
      XXZZ     -42.0170   XYZZ       0.0000   YYZZ     -15.7090
      XZZZ       0.0001   YZZZ      -0.0020   ZZZZ     -66.1333
 -----------------------------------------------------------------
Archival summary:
1\1\cn0821\SP\ProcedureUnspecified\BasisUnspecified\38\r0852400\SunApr1208:03:522020SunApr1208:03:522020\0\\#,ProcedureUnspecified,BasisUnspecified,\\0,1\C\H,1,1.08622\H,1,1.08642,2,106.329\C,1,1.53545,2,109.5,3,-118.211,0\H,4,0.954363,1,110.56,2,178.343,0\H,4,0.954466,1,110.559,2,-62.1253,0\H,4,0.975152,1,111.11,2,58.1097,0\C,1,1.53545,2,109.5,3,118.211,0\H,8,0.954345,1,110.56,2,-178.343,0\H,8,0.95445,1,110.559,2,62.1253,0\H,8,0.975138,1,111.11,2,-58.1098,0\\\@

 Total job time:  50.12s(wall), 140.20s(cpu) 
 Sun Apr 12 08:03:52 2020

        *************************************************************
        *                                                           *
        *  Thank you very much for using Q-Chem.  Have a nice day.  *
        *                                                           *
        *************************************************************


