                  Welcome to Q-Chem
     A Quantum Leap Into The Future Of Chemistry


 Q-Chem 5.3 (devel), Q-Chem, Inc., Pleasanton, CA (2020)

 Yihan Shao,  Zhengting Gan,  E. Epifanovsky,  A. T. B. Gilbert,  M. Wormit,  
 J. Kussmann,  A. W. Lange,  A. Behn,  Jia Deng,  Xintian Feng,  D. Ghosh,  
 M. Goldey,  P. R. Horn,  L. D. Jacobson,  I. Kaliman,  T. Kus,  A. Landau,  
 Jie Liu,  E. I. Proynov,  R. M. Richard,  R. P. Steele,  E. J. Sundstrom,  
 H. L. Woodcock III,  P. M. Zimmerman,  D. Zuev,  B. Alam,  B. Albrecht,  
 E. Alguire,  S. A. Baeppler,  D. Barton,  Z. Benda,  Y. A. Bernard,  
 E. J. Berquist,  K. B. Bravaya,  H. Burton,  K. Carter-Fenk,  D. Casanova,  
 Chun-Min Chang,  Yunqing Chen,  A. Chien,  K. D. Closser,  M. P. Coons,  
 S. Coriani,  S. Dasgupta,  A. L. Dempwolff,  M. Diedenhofen,  Hainam Do,  
 R. G. Edgar,  Po-Tung Fang,  S. Faraji,  S. Fatehi,  Qingguo Feng,  
 J. Fosso-Tande,  J. Gayvert,  Qinghui Ge,  A. Ghysels,  G. Gidofalvi,  
 J. Gomes,  J. Gonthier,  A. Gunina,  D. Hait,  M. W. D. Hanson-Heine,  
 P. H. P. Harbach,  A. W. Hauser,  M. F. Herbst,  J. E. Herr,  
 E. G. Hohenstein,  Z. C. Holden,  Kerwin Hui,  B. C. Huynh,  T.-C. Jagau,  
 Hyunjun Ji,  B. Kaduk,  K. Khistyaev,  Jaehoon Kim,  P. Klunzinger,  K. Koh,  
 D. Kosenkov,  L. Koulias,  T. Kowalczyk,  C. M. Krauter,  A. Kunitsa,  
 Ka Un Lao,  A. Laurent,  K. V. Lawler,  Joonho Lee,  D. Lefrancois,  
 S. Lehtola,  D. S. Levine,  Yi-Pei Li,  You-Sheng Lin,  Fenglai Liu,  
 Kuan-Yu Liu,  E. Livshits,  M. Loipersberger,  A. Luenser,  P. Manohar,  
 E. Mansoor,  S. F. Manzer,  Shan-Ping Mao,  Yuezhi Mao,  N. Mardirossian,  
 A. V. Marenich,  T. Markovich,  L. A. Martinez-Martinez,  S. A. Maurer,  
 N. J. Mayhall,  S. C. McKenzie,  J.-M. Mewes,  P. Morgante,  A. F. Morrison,  
 J. W. Mullinax,  K. Nanda,  T. S. Nguyen-Beck,  R. Olivares-Amaya,  
 K. J. Oosterbaan,  J. A. Parkhill,  S. K. Paul,  F. Pavosevic,  Zheng Pei,  
 T. M. Perrine,  F. Plasser,  P. Pokhilko,  S. Prager,  A. Prociuk,  
 E. Ramos,  B. Rana,  D. R. Rehn,  F. Rob,  M. Scheurer,  M. Schneider,  
 N. Sergueev,  S. M. Sharada,  S. Sharma,  D. W. Small,  T. Stauch,  
 C. J. Stein,  T. Stein,  Yu-Chuan Su,  S. P. Veccham,  Zhen Tao,  
 A. J. W. Thom,  A. Tkatchenko,  T. Tsuchimochi,  N. M. Tubman,  L. Vogt,  
 M. L. Vidal,  O. Vydrov,  M. A. Watson,  J. Wenzel,  M. de Wergifosse,  
 T. A. Wesolowski,  A. White,  J. Witte,  A. Yamada,  Jun Yang,  K. Yao,  
 S. Yeganeh,  S. R. Yost,  Zhi-Qiang You,  A. Zech,  Igor Ying Zhang,  
 Xing Zhang,  Yan Zhao,  Ying Zhu,  B. R. Brooks,  G. K. L. Chan,  
 C. J. Cramer,  M. S. Gordon,  W. J. Hehre,  A. Klamt,  M. W. Schmidt,  
 C. D. Sherrill,  D. G. Truhlar,  A. Aspuru-Guzik,  R. Baer,  A. T. Bell,  
 N. A. Besley,  Jeng-Da Chai,  A. E. DePrince, III,  R. A. DiStasio Jr.,  
 A. Dreuw,  B. D. Dunietz,  T. R. Furlani,  Chao-Ping Hsu,  Yousung Jung,  
 Jing Kong,  D. S. Lambrecht,  WanZhen Liang,  C. Ochsenfeld,  
 V. A. Rassolov,  L. V. Slipchenko,  J. E. Subotnik,  T. Van Voorhis,  
 J. M. Herbert,  A. I. Krylov,  P. M. W. Gill,  M. Head-Gordon

 Contributors to earlier versions of Q-Chem not listed above: 
 R. D. Adamson,  B. Austin,  J. Baker,  G. J. O. Beran,  K. Brandhorst,  
 S. T. Brown,  E. F. C. Byrd,  A. K. Chakraborty,  C.-L. Cheng,  
 Siu Hung Chien,  D. M. Chipman,  D. L. Crittenden,  H. Dachsel,  
 R. J. Doerksen,  A. D. Dutoi,  L. Fusti-Molnar,  W. A. Goddard III,  
 A. Golubeva-Zadorozhnaya,  S. R. Gwaltney,  G. Hawkins,  A. Heyden,  
 S. Hirata,  G. Kedziora,  F. J. Keil,  C. Kelley,  Jihan Kim,  R. A. King,  
 R. Z. Khaliullin,  P. P. Korambath,  W. Kurlancheek,  A. M. Lee,  M. S. Lee,  
 S. V. Levchenko,  Ching Yeh Lin,  D. Liotard,  R. C. Lochan,  I. Lotan,  
 P. E. Maslen,  N. Nair,  D. P. O'Neill,  D. Neuhauser,  E. Neuscamman,  
 C. M. Oana,  R. Olson,  B. Peters,  R. Peverati,  P. A. Pieniazek,  
 Y. M. Rhee,  J. Ritchie,  M. A. Rohrdanz,  E. Rosta,  N. J. Russ,  
 H. F. Schaefer III,  N. E. Schultz,  N. Shenvi,  A. C. Simmonett,  A. Sodt,  
 D. Stuck,  K. S. Thanthiriwatte,  V. Vanovschi,  Tao Wang,  A. Warshel,  
 C. F. Williams,  Q. Wu,  X. Xu,  W. Zhang

 Please cite Q-Chem as follows:
 Y. Shao et al., Mol. Phys. 113, 184-215 (2015)
 DOI: 10.1080/00268976.2014.952696

 Q-Chem 5.3.0 for Intel X86 EM64T Linux

 Parts of Q-Chem use Armadillo 9.800.1 (Horizon Scraper).
 http://arma.sourceforge.net/

 Q-Chem begins on Sun Jul 12 20:19:17 2020  

Host: centos77-c2
0

     Scratch files written to /tmp/28905.centos77-h1/qchem121354//
Processing $rem in /opt/qchem-5.3.0-intel2020u1//config/preferences:
Processing $rem in /home/shihchengli/.qchemrc:

Checking the input file for inconsistencies... 	...done.

--------------------------------------------------------------
User input:
--------------------------------------------------------------
$rem
   JOBTYPE  sp
   EXCHANGE   omegaB97X-D
   BASIS   6-311+G(2df,2pd)
   UNRESTRICTED   True
   max_scf_cycles   250
   geom_opt_max_cycles   1500
   basis2 6-31G*
   scf_algorithm rca_diis
   SYM_IGNORE  TRUE
   print_input   true
   geom_opt_dmax   80
   pop_mulliken false
   XC_GRID 000075000302
$end

$molecule
0 2
N       0.2546748499     -0.0472970423     -0.0000000000
O       -0.2033430792     -1.1511897840     0.0000000000
O       -1.0565086820     0.4938791547     0.0000000000
O       1.0051771931     0.7006795936     0.0000000000
$end
--------------------------------------------------------------
 ----------------------------------------------------------------
             Standard Nuclear Orientation (Angstroms)
    I     Atom           X                Y                Z
 ----------------------------------------------------------------
    1      N       0.2546748499    -0.0472970423     0.0000000000
    2      O      -0.2033430792    -1.1511897840     0.0000000000
    3      O      -1.0565086820     0.4938791547     0.0000000000
    4      O       1.0051771931     0.7006795936     0.0000000000
 ----------------------------------------------------------------
 Nuclear Repulsion Energy =         123.59014944 hartrees
 There are       16 alpha and       15 beta electrons
 Requested basis set is 6-311+G(2df,2pd)
 There are 32 shells and 136 basis functions

 Total QAlloc Memory Limit   2000 MB
 Mega-Array Size       188 MB
 MEM_STATIC part       192 MB

                       Distance Matrix (Angstroms)
             N (  1)   O (  2)   O (  3)
   O (  2)  1.195140
   O (  3)  1.418476  1.853144
   O (  4)  1.059586  2.211321  2.072032
 
 A cutoff of  1.0D-09 yielded    516 shell pairs
 There are      9521 function pairs (     12583 Cartesian)
 Smallest overlap matrix eigenvalue = 4.40E-04

 Scale SEOQF with 1.000000e-01/1.000000e-01/1.000000e-01

 Standard Electronic Orientation quadrupole field applied
 Nucleus-field energy     =     0.0000000018 hartrees
 Requested basis set is 6-31G(d)
 There are 16 shells and 56 basis functions
 A cutoff of  1.0D-09 yielded    133 shell pairs
 There are      1681 function pairs (      1935 Cartesian)
 Smallest overlap matrix eigenvalue = 2.61E-03
 Guess from superposition of atomic densities
 Warning:  Energy on first SCF cycle will be non-variational
 SAD guess density has 31.000000 electrons
 Long-range K will be added via erf
 Coulomb attenuation parameter = 0.2 bohr**(-1)
 An unrestricted hybrid HF-DFT SCF calculation will be
 performed using Relaxed Constraint Minimization + Pulay DIIS
 Exchange:     0.2220 Hartree-Fock + 1.0000 wB97X-D + LR-HF
 Correlation:  1.0000 wB97X-D
 Using Euler-Maclaurin-Lebedev (75,302) quadrature formula
 Dispersion:   Grimme D
 SCF converges when DIIS error is below 1.0E-04
 using 6 threads for integral computing
 -------------------------------------------------------
 OpenMP Integral computing Module                
 Release: version 1.0, May 2013, Q-Chem Inc. Pittsburgh 
 -------------------------------------------------------
 using 6 threads for integral computing
 -------------------------------------------------------
 OpenMP Integral computing Module                
 Release: version 1.0, May 2013, Q-Chem Inc. Pittsburgh 
 -------------------------------------------------------
 ---------------------------------------
  Cycle       Energy         DIIS Error
 ---------------------------------------
    1    -281.2530352131      1.28E-01
    2    -279.7897839280      2.70E-02
    3    -279.8786894532      6.67E-03
    4    -280.0079658558      7.59E-03
    5    -280.0151796835      9.78E-04 Done RCA. Switching to DIIS
    6    -280.0249975535      8.42E-04
    7    -280.0258050507      5.14E-04
    8    -280.0262012646      2.21E-04
    9    -280.0265121866      7.97E-05 Convergence criterion met
 ---------------------------------------
 <S^2> = 0.7554
 SCF time:  CPU 13.17 s  wall 2.67 s
 SCF   energy in the small basis set = -280.02651219
 Total energy in the small basis set = -280.02651219
 ----------------------------------------------------
  Cycle       Energy    
 ----------------------------------------------------
    1     -28.4829033350     -2.85E+01
 Long-range K will be added via erf
 Coulomb attenuation parameter = 0.2 bohr**(-1)
 An unrestricted hybrid HF-DFT SCF calculation will be
 performed using Relaxed Constraint Minimization + Pulay DIIS
 Exchange:     0.2220 Hartree-Fock + 1.0000 wB97X-D + LR-HF
 Correlation:  1.0000 wB97X-D
 Using Euler-Maclaurin-Lebedev (75,302) quadrature formula
 Dispersion:   Grimme D
 SCF converges when DIIS error is below 1.0E-05
 Basis2 calculation detected. Using small basis as guess for larger.
 SCFMinFind is unable to tell whether the solution found is close.
 Resetting ReadMinima to 0 and attempting to follow guess.
 SCFMinFind following SCF Guess.
 using 6 threads for integral computing
 -------------------------------------------------------
 OpenMP Integral computing Module                
 Release: version 1.0, May 2013, Q-Chem Inc. Pittsburgh 
 -------------------------------------------------------
 using 6 threads for integral computing
 -------------------------------------------------------
 OpenMP Integral computing Module                
 Release: version 1.0, May 2013, Q-Chem Inc. Pittsburgh 
 -------------------------------------------------------
 ---------------------------------------
  Cycle       Energy         DIIS Error
 ---------------------------------------
    1    -280.1009400619      9.97E-03
    2    -280.1146035367      4.63E-03
    3    -280.1264145058      1.08E-03
    4    -280.1423799181      9.84E-04 Done RCA. Switching to DIIS
    5    -280.1418352102      1.19E-03
    6    -280.1438157805      7.94E-05
    7    -280.1438639999      2.78E-05
    8    -280.1438739123      2.54E-05
    9    -280.1438797530      8.83E-06 Convergence criterion met
 ---------------------------------------
 <S^2> = 0.7561
 SCF time:  CPU 41.05 s  wall 7.74 s
 SCF   energy in the final basis set = -280.14387975
 Total energy in the final basis set = -280.14387975
 
 --------------------------------------------------------------
 
                    Orbital Energies (a.u.)
 --------------------------------------------------------------
 
 Alpha MOs
 -- Occupied --
-19.3907 -19.3665 -19.3283 -14.7815  -1.5263  -1.3500  -1.1292  -0.7804
 -0.7691  -0.7331  -0.7091  -0.5770  -0.5089  -0.4550  -0.4382  -0.4166
 -- Virtual --
 -0.0011   0.0794   0.1312   0.1370   0.1465   0.1517   0.2308   0.2465
  0.2547   0.2555   0.2604   0.2684   0.3132   0.3349   0.3465   0.3577
  0.3832   0.4242   0.4421   0.7251   0.7441   0.7490   0.8897   0.9021
  0.9411   0.9908   1.0120   1.0224   1.0477   1.1016   1.1181   1.1252
  1.1600   1.1857   1.1996   1.2858   1.3840   1.4138   1.4717   1.4836
  1.5828   1.5862   1.6361   1.7343   1.8469   1.8997   1.9685   2.0328
  2.0805   2.2081   2.4426   2.4886   2.5456   2.5869   2.7077   2.8247
  3.5504   3.5701   3.6298   3.6507   3.6523   3.7080   3.9960   4.1423
  4.2326   4.2885   4.3525   4.5138   4.6481   4.6570   4.9158   4.9716
  4.9768   4.9822   5.0101   5.0128   5.0346   5.0605   5.0973   5.1121
  5.1149   5.1554   5.2118   5.2852   5.3135   5.3724   5.4108   5.4751
  5.5711   5.6457   5.7176   5.8757   5.9734   6.2027   6.5296   6.6159
  6.6689   6.7333   6.7435   6.7478   6.8386   6.8662   6.9392   6.9826
  7.1144   7.1326   7.2377   7.3508   7.4149   7.4601   7.5436   7.6202
  7.9273   8.1049   8.2093   9.2439  36.3148  49.9939  50.2798  50.7366
 
 Beta MOs
 -- Occupied --
-19.3912 -19.3590 -19.3083 -14.7822  -1.5242  -1.3370  -1.0816  -0.7725
 -0.7691  -0.7121  -0.6998  -0.5119  -0.5031  -0.4272  -0.4134
 -- Virtual --
 -0.0700  -0.0001   0.0803   0.1345   0.1418   0.1518   0.1552   0.2315
  0.2533   0.2547   0.2575   0.2647   0.2701   0.3139   0.3377   0.3464
  0.3602   0.3850   0.4272   0.4461   0.7272   0.7453   0.7487   0.8952
  0.9037   0.9418   0.9959   1.0129   1.0324   1.0568   1.1226   1.1258
  1.1308   1.1677   1.1882   1.2226   1.2989   1.3961   1.4230   1.4769
  1.4892   1.5945   1.6098   1.6535   1.7571   1.8533   1.9063   1.9717
  2.0470   2.0836   2.2325   2.4612   2.4950   2.5467   2.5926   2.7124
  2.8288   3.5507   3.5712   3.6287   3.6526   3.6528   3.7148   4.0029
  4.1437   4.2360   4.2884   4.3546   4.5207   4.6561   4.6600   4.9332
  4.9784   4.9976   5.0140   5.0256   5.0406   5.0657   5.0812   5.1243
  5.1362   5.1528   5.1742   5.2446   5.2998   5.3269   5.3833   5.4389
  5.4870   5.5947   5.6606   5.7254   5.8816   5.9833   6.2250   6.5353
  6.6301   6.6977   6.7460   6.7673   6.7921   6.8831   6.9106   6.9642
  6.9892   7.1336   7.1563   7.2529   7.3671   7.4186   7.4765   7.5626
  7.6669   7.9279   8.1076   8.2170   9.2475  36.3140  50.0153  50.2862
 50.7376
 --------------------------------------------------------------
 
 -----------------------------------------------------------------
                    Cartesian Multipole Moments
 -----------------------------------------------------------------
    Charge (ESU x 10^10)
                -0.0000
    Dipole Moment (Debye)
         X       1.5426      Y       0.0712      Z       0.0000
       Tot       1.5443
    Quadrupole Moments (Debye-Ang)
        XX     -22.6133     XY       0.1168     YY     -22.1858
        XZ       0.0000     YZ      -0.0000     ZZ     -19.9489
    Octopole Moments (Debye-Ang^2)
       XXX       2.2952    XXY      -1.3324    XYY       0.2255
       YYY       2.3305    XXZ      -0.0000    XYZ       0.0000
       YYZ      -0.0000    XZZ       1.5619    YZZ       0.0011
       ZZZ      -0.0000
    Hexadecapole Moments (Debye-Ang^3)
      XXXX     -89.7693   XXXY      -5.1849   XXYY     -27.7016
      XYYY      -4.6347   YYYY     -81.7174   XXXZ       0.0000
      XXYZ      -0.0000   XYYZ       0.0000   YYYZ      -0.0000
      XXZZ     -17.4780   XYZZ      -1.2737   YYZZ     -16.1453
      XZZZ       0.0000   YZZZ      -0.0000   ZZZZ     -15.0111
 -----------------------------------------------------------------
Archival summary:
1\1\centos77-c2\SP\ProcedureUnspecified\BasisUnspecified\31(2)\shihchen\SunJul1220:19:292020SunJul1220:19:292020\0\\#,ProcedureUnspecified,BasisUnspecified,\\0,2\N\O,1,1.05959\O,1,1.19514,2,157.438\O,1,1.41848,2,112.669,3,-180,0\\\@

 Total job time:  11.75s(wall), 57.84s(cpu) 
 Sun Jul 12 20:19:29 2020

        *************************************************************
        *                                                           *
        *  Thank you very much for using Q-Chem.  Have a nice day.  *
        *                                                           *
        *************************************************************


