                  Welcome to Q-Chem
     A Quantum Leap Into The Future Of Chemistry


 Q-Chem 5.3 (devel), Q-Chem, Inc., Pleasanton, CA (2020)

 Yihan Shao,  Zhengting Gan,  E. Epifanovsky,  A. T. B. Gilbert,  M. Wormit,  
 J. Kussmann,  A. W. Lange,  A. Behn,  Jia Deng,  Xintian Feng,  D. Ghosh,  
 M. Goldey,  P. R. Horn,  L. D. Jacobson,  I. Kaliman,  T. Kus,  A. Landau,  
 Jie Liu,  E. I. Proynov,  R. M. Richard,  R. P. Steele,  E. J. Sundstrom,  
 H. L. Woodcock III,  P. M. Zimmerman,  D. Zuev,  B. Alam,  B. Albrecht,  
 E. Alguire,  S. A. Baeppler,  D. Barton,  Z. Benda,  Y. A. Bernard,  
 E. J. Berquist,  K. B. Bravaya,  H. Burton,  K. Carter-Fenk,  D. Casanova,  
 Chun-Min Chang,  Yunqing Chen,  A. Chien,  K. D. Closser,  M. P. Coons,  
 S. Coriani,  S. Dasgupta,  A. L. Dempwolff,  M. Diedenhofen,  Hainam Do,  
 R. G. Edgar,  Po-Tung Fang,  S. Faraji,  S. Fatehi,  Qingguo Feng,  
 J. Fosso-Tande,  J. Gayvert,  Qinghui Ge,  A. Ghysels,  G. Gidofalvi,  
 J. Gomes,  J. Gonthier,  A. Gunina,  D. Hait,  M. W. D. Hanson-Heine,  
 P. H. P. Harbach,  A. W. Hauser,  M. F. Herbst,  J. E. Herr,  
 E. G. Hohenstein,  Z. C. Holden,  Kerwin Hui,  B. C. Huynh,  T.-C. Jagau,  
 Hyunjun Ji,  B. Kaduk,  K. Khistyaev,  Jaehoon Kim,  P. Klunzinger,  K. Koh,  
 D. Kosenkov,  L. Koulias,  T. Kowalczyk,  C. M. Krauter,  A. Kunitsa,  
 Ka Un Lao,  A. Laurent,  K. V. Lawler,  Joonho Lee,  D. Lefrancois,  
 S. Lehtola,  D. S. Levine,  Yi-Pei Li,  You-Sheng Lin,  Fenglai Liu,  
 Kuan-Yu Liu,  E. Livshits,  M. Loipersberger,  A. Luenser,  P. Manohar,  
 E. Mansoor,  S. F. Manzer,  Shan-Ping Mao,  Yuezhi Mao,  N. Mardirossian,  
 A. V. Marenich,  T. Markovich,  L. A. Martinez-Martinez,  S. A. Maurer,  
 N. J. Mayhall,  S. C. McKenzie,  J.-M. Mewes,  P. Morgante,  A. F. Morrison,  
 J. W. Mullinax,  K. Nanda,  T. S. Nguyen-Beck,  R. Olivares-Amaya,  
 K. J. Oosterbaan,  J. A. Parkhill,  S. K. Paul,  F. Pavosevic,  Zheng Pei,  
 T. M. Perrine,  F. Plasser,  P. Pokhilko,  S. Prager,  A. Prociuk,  
 E. Ramos,  B. Rana,  D. R. Rehn,  F. Rob,  M. Scheurer,  M. Schneider,  
 N. Sergueev,  S. M. Sharada,  S. Sharma,  D. W. Small,  T. Stauch,  
 C. J. Stein,  T. Stein,  Yu-Chuan Su,  S. P. Veccham,  Zhen Tao,  
 A. J. W. Thom,  A. Tkatchenko,  T. Tsuchimochi,  N. M. Tubman,  L. Vogt,  
 M. L. Vidal,  O. Vydrov,  M. A. Watson,  J. Wenzel,  M. de Wergifosse,  
 T. A. Wesolowski,  A. White,  J. Witte,  A. Yamada,  Jun Yang,  K. Yao,  
 S. Yeganeh,  S. R. Yost,  Zhi-Qiang You,  A. Zech,  Igor Ying Zhang,  
 Xing Zhang,  Yan Zhao,  Ying Zhu,  B. R. Brooks,  G. K. L. Chan,  
 C. J. Cramer,  M. S. Gordon,  W. J. Hehre,  A. Klamt,  M. W. Schmidt,  
 C. D. Sherrill,  D. G. Truhlar,  A. Aspuru-Guzik,  R. Baer,  A. T. Bell,  
 N. A. Besley,  Jeng-Da Chai,  A. E. DePrince, III,  R. A. DiStasio Jr.,  
 A. Dreuw,  B. D. Dunietz,  T. R. Furlani,  Chao-Ping Hsu,  Yousung Jung,  
 Jing Kong,  D. S. Lambrecht,  WanZhen Liang,  C. Ochsenfeld,  
 V. A. Rassolov,  L. V. Slipchenko,  J. E. Subotnik,  T. Van Voorhis,  
 J. M. Herbert,  A. I. Krylov,  P. M. W. Gill,  M. Head-Gordon

 Contributors to earlier versions of Q-Chem not listed above: 
 R. D. Adamson,  B. Austin,  J. Baker,  G. J. O. Beran,  K. Brandhorst,  
 S. T. Brown,  E. F. C. Byrd,  A. K. Chakraborty,  C.-L. Cheng,  
 Siu Hung Chien,  D. M. Chipman,  D. L. Crittenden,  H. Dachsel,  
 R. J. Doerksen,  A. D. Dutoi,  L. Fusti-Molnar,  W. A. Goddard III,  
 A. Golubeva-Zadorozhnaya,  S. R. Gwaltney,  G. Hawkins,  A. Heyden,  
 S. Hirata,  G. Kedziora,  F. J. Keil,  C. Kelley,  Jihan Kim,  R. A. King,  
 R. Z. Khaliullin,  P. P. Korambath,  W. Kurlancheek,  A. M. Lee,  M. S. Lee,  
 S. V. Levchenko,  Ching Yeh Lin,  D. Liotard,  R. C. Lochan,  I. Lotan,  
 P. E. Maslen,  N. Nair,  D. P. O'Neill,  D. Neuhauser,  E. Neuscamman,  
 C. M. Oana,  R. Olson,  B. Peters,  R. Peverati,  P. A. Pieniazek,  
 Y. M. Rhee,  J. Ritchie,  M. A. Rohrdanz,  E. Rosta,  N. J. Russ,  
 H. F. Schaefer III,  N. E. Schultz,  N. Shenvi,  A. C. Simmonett,  A. Sodt,  
 D. Stuck,  K. S. Thanthiriwatte,  V. Vanovschi,  Tao Wang,  A. Warshel,  
 C. F. Williams,  Q. Wu,  X. Xu,  W. Zhang

 Please cite Q-Chem as follows:
 Y. Shao et al., Mol. Phys. 113, 184-215 (2015)
 DOI: 10.1080/00268976.2014.952696

 Q-Chem 5.3.0 for Intel X86 EM64T Linux

 Parts of Q-Chem use Armadillo 9.800.1 (Horizon Scraper).
 http://arma.sourceforge.net/

 Q-Chem begins on Sun Jul 12 20:28:58 2020  

Host: centos77-c2
0

     Scratch files written to /tmp/28905.centos77-h1/qchem123531//
Processing $rem in /opt/qchem-5.3.0-intel2020u1//config/preferences:
Processing $rem in /home/shihchengli/.qchemrc:

Checking the input file for inconsistencies... 	...done.

--------------------------------------------------------------
User input:
--------------------------------------------------------------
$rem
   JOBTYPE  sp
   EXCHANGE   omegaB97X-D
   BASIS   6-311+G(2df,2pd)
   UNRESTRICTED   True
   max_scf_cycles   250
   geom_opt_max_cycles   1500
   basis2 6-31G*
   scf_algorithm rca_diis
   SYM_IGNORE  TRUE
   print_input   true
   geom_opt_dmax   80
   pop_mulliken false
   XC_GRID 000075000302
$end

$molecule
0 2
N       -0.0003162905     0.0590743907     0.0000000000
O       0.0001733319     -1.3482222695     -0.0000000000
O       -1.0012243216     0.6426534101     -0.0000000000
O       1.0013675621     0.6425663907     -0.0000000000
$end
--------------------------------------------------------------
 ----------------------------------------------------------------
             Standard Nuclear Orientation (Angstroms)
    I     Atom           X                Y                Z
 ----------------------------------------------------------------
    1      N      -0.0003162905     0.0590743907     0.0000000000
    2      O       0.0001733319    -1.3482222695     0.0000000000
    3      O      -1.0012243216     0.6426534101     0.0000000000
    4      O       1.0013675621     0.6425663907     0.0000000000
 ----------------------------------------------------------------
 Nuclear Repulsion Energy =         119.50472983 hartrees
 There are       16 alpha and       15 beta electrons
 Requested basis set is 6-311+G(2df,2pd)
 There are 32 shells and 136 basis functions

 Total QAlloc Memory Limit   2000 MB
 Mega-Array Size       188 MB
 MEM_STATIC part       192 MB

                       Distance Matrix (Angstroms)
             N (  1)   O (  2)   O (  3)
   O (  2)  1.407297
   O (  3)  1.158612  2.228538
   O (  4)  1.159238  2.228369  2.002592
 
 A cutoff of  1.0D-09 yielded    513 shell pairs
 There are      9497 function pairs (     12559 Cartesian)
 Smallest overlap matrix eigenvalue = 1.04E-03

 Scale SEOQF with 1.000000e-01/1.000000e-01/1.000000e-01

 Standard Electronic Orientation quadrupole field applied
 Nucleus-field energy     =     0.0000000021 hartrees
 Requested basis set is 6-31G(d)
 There are 16 shells and 56 basis functions
 A cutoff of  1.0D-09 yielded    133 shell pairs
 There are      1681 function pairs (      1935 Cartesian)
 Smallest overlap matrix eigenvalue = 5.18E-03
 Guess from superposition of atomic densities
 Warning:  Energy on first SCF cycle will be non-variational
 SAD guess density has 31.000000 electrons
 Long-range K will be added via erf
 Coulomb attenuation parameter = 0.2 bohr**(-1)
 An unrestricted hybrid HF-DFT SCF calculation will be
 performed using Relaxed Constraint Minimization + Pulay DIIS
 Exchange:     0.2220 Hartree-Fock + 1.0000 wB97X-D + LR-HF
 Correlation:  1.0000 wB97X-D
 Using Euler-Maclaurin-Lebedev (75,302) quadrature formula
 Dispersion:   Grimme D
 SCF converges when DIIS error is below 1.0E-04
 using 6 threads for integral computing
 -------------------------------------------------------
 OpenMP Integral computing Module                
 Release: version 1.0, May 2013, Q-Chem Inc. Pittsburgh 
 -------------------------------------------------------
 using 6 threads for integral computing
 -------------------------------------------------------
 OpenMP Integral computing Module                
 Release: version 1.0, May 2013, Q-Chem Inc. Pittsburgh 
 -------------------------------------------------------
 ---------------------------------------
  Cycle       Energy         DIIS Error
 ---------------------------------------
    1    -281.0142756946      1.17E-01
    2    -279.8801739111      2.59E-02
    3    -279.9622252018      5.98E-03
    4    -280.0702598999      7.43E-03
    5    -280.0768288668      1.96E-03
    6    -280.0866311864      2.55E-03
    7    -280.0876078377      3.77E-04 Done RCA. Switching to DIIS
    8    -280.0893943899      7.41E-04
    9    -280.0908172929      1.51E-04
   10    -280.0911294929      6.05E-05 Convergence criterion met
 ---------------------------------------
 <S^2> = 0.7546
 SCF time:  CPU 18.19 s  wall 4.35 s
 SCF   energy in the small basis set = -280.09112949
 Total energy in the small basis set = -280.09112949
 ----------------------------------------------------
  Cycle       Energy    
 ----------------------------------------------------
    1     -28.3805949293     -2.84E+01
 Long-range K will be added via erf
 Coulomb attenuation parameter = 0.2 bohr**(-1)
 An unrestricted hybrid HF-DFT SCF calculation will be
 performed using Relaxed Constraint Minimization + Pulay DIIS
 Exchange:     0.2220 Hartree-Fock + 1.0000 wB97X-D + LR-HF
 Correlation:  1.0000 wB97X-D
 Using Euler-Maclaurin-Lebedev (75,302) quadrature formula
 Dispersion:   Grimme D
 SCF converges when DIIS error is below 1.0E-05
 Basis2 calculation detected. Using small basis as guess for larger.
 SCFMinFind is unable to tell whether the solution found is close.
 Resetting ReadMinima to 0 and attempting to follow guess.
 SCFMinFind following SCF Guess.
 using 6 threads for integral computing
 -------------------------------------------------------
 OpenMP Integral computing Module                
 Release: version 1.0, May 2013, Q-Chem Inc. Pittsburgh 
 -------------------------------------------------------
 using 6 threads for integral computing
 -------------------------------------------------------
 OpenMP Integral computing Module                
 Release: version 1.0, May 2013, Q-Chem Inc. Pittsburgh 
 -------------------------------------------------------
 ---------------------------------------
  Cycle       Energy         DIIS Error
 ---------------------------------------
    1    -280.1178410236      1.08E-02
    2    -279.9711575092      1.15E-02
    3    -280.0556207518      3.53E-03
    4    -280.1243825370      4.59E-03
    5    -280.1475919806      5.81E-04 Done RCA. Switching to DIIS
    6    -280.1984211652      1.01E-03
    7    -280.2002077728      4.39E-04
    8    -280.2004504593      4.09E-04
    9    -280.2011060506      3.29E-04
   10    -280.2023994489      5.28E-05
   11    -280.2024492702      7.69E-05
   12    -280.2025017678      1.56E-05
   13    -280.2025025804      2.16E-05
   14    -280.2025050179      1.58E-06 Convergence criterion met
 ---------------------------------------
 <S^2> = 0.7561
 SCF time:  CPU 58.93 s  wall 11.07 s
 SCF   energy in the final basis set = -280.20250502
 Total energy in the final basis set = -280.20250502
 
 --------------------------------------------------------------
 
                    Orbital Energies (a.u.)
 --------------------------------------------------------------
 
 Alpha MOs
 -- Occupied --
-19.4142 -19.3558 -19.3557 -14.7767  -1.4812  -1.2680  -1.2124  -0.7933
 -0.7365  -0.7182  -0.6904  -0.5629  -0.5072  -0.5000  -0.4724  -0.4494
 -- Virtual --
 -0.0163   0.0687   0.1243   0.1382   0.1383   0.1574   0.2421   0.2422
  0.2527   0.2578   0.2620   0.3225   0.3367   0.3411   0.3480   0.3500
  0.4307   0.4375   0.4498   0.4963   0.7514   0.8275   0.8295   0.9177
  0.9643   0.9946   1.0418   1.0668   1.0689   1.0705   1.0708   1.0960
  1.1134   1.1553   1.1773   1.3214   1.4224   1.4678   1.5035   1.5164
  1.5878   1.5947   1.5961   1.6040   1.7724   1.7905   1.9236   1.9441
  2.0069   2.2579   2.2939   2.3218   2.5192   2.5328   2.6781   2.7332
  3.5881   3.6587   3.6679   3.6722   3.8213   4.0064   4.0192   4.0439
  4.4010   4.4544   4.4583   4.5096   4.5902   4.6229   4.6813   4.9764
  4.9768   4.9872   4.9994   5.0163   5.0238   5.0283   5.0366   5.0512
  5.0819   5.1426   5.1479   5.1583   5.1796   5.3037   5.3795   5.3813
  5.4784   5.5896   5.7777   5.8671   5.9437   6.0840   6.3126   6.6703
  6.6967   6.7503   6.7661   6.7772   6.7858   6.7970   6.8252   6.8352
  6.9820   7.0940   7.0965   7.2055   7.2152   7.3233   7.5361   7.6740
  7.7935   7.8250   7.8466   8.1350  36.2425  49.9309  50.2204  50.3232
 
 Beta MOs
 -- Occupied --
-19.3951 -19.3521 -19.3520 -14.7776  -1.4756  -1.2603  -1.1641  -0.7729
 -0.7353  -0.7024  -0.6773  -0.4780  -0.4758  -0.4682  -0.4448
 -- Virtual --
 -0.1659  -0.0142   0.0760   0.1323   0.1372   0.1386   0.1570   0.2414
  0.2455   0.2550   0.2575   0.2613   0.3244   0.3355   0.3400   0.3474
  0.3489   0.4394   0.4410   0.4529   0.5023   0.7511   0.8312   0.8363
  0.9204   0.9663   0.9971   1.0442   1.0725   1.0745   1.0763   1.0906
  1.1002   1.1206   1.1738   1.1806   1.3262   1.4541   1.4758   1.5224
  1.5373   1.5994   1.6004   1.6019   1.6145   1.8002   1.8008   1.9342
  1.9478   2.0146   2.2608   2.2979   2.3376   2.5233   2.5360   2.6930
  2.7406   3.5885   3.6580   3.6692   3.6717   3.8229   4.0121   4.0189
  4.0545   4.4049   4.4574   4.4595   4.5123   4.5947   4.6312   4.6798
  5.0007   5.0090   5.0352   5.0374   5.0377   5.0444   5.0620   5.0634
  5.0917   5.0955   5.1518   5.1700   5.1717   5.1872   5.3235   5.3954
  5.3976   5.4868   5.6002   5.7919   5.8790   5.9652   6.0918   6.3300
  6.7164   6.7320   6.7804   6.7814   6.7874   6.8086   6.8257   6.8443
  6.8511   7.0188   7.1156   7.1159   7.2086   7.2206   7.3628   7.5487
  7.6781   7.8079   7.8327   7.8610   8.1372  36.2415  49.9523  50.2237
 50.3263
 --------------------------------------------------------------
 
 -----------------------------------------------------------------
                    Cartesian Multipole Moments
 -----------------------------------------------------------------
    Charge (ESU x 10^10)
                -0.0000
    Dipole Moment (Debye)
         X      -0.0033      Y      -0.4030      Z       0.0000
       Tot       0.4030
    Quadrupole Moments (Debye-Ang)
        XX     -22.9301     XY      -0.0000     YY     -22.2477
        XZ      -0.0000     YZ       0.0000     ZZ     -20.0917
    Octopole Moments (Debye-Ang^2)
       XXX      -0.0056    XXY      -1.2653    XYY      -0.0030
       YYY       0.3560    XXZ       0.0000    XYZ      -0.0000
       YYZ       0.0000    XZZ      -0.0032    YZZ       0.8133
       ZZZ       0.0000
    Hexadecapole Moments (Debye-Ang^3)
      XXXX     -82.6932   XXXY       0.0033   XXYY     -29.4971
      XYYY       0.0039   YYYY     -99.3593   XXXZ      -0.0000
      XXYZ       0.0000   XYYZ      -0.0000   YYYZ       0.0000
      XXZZ     -15.9613   XYZZ       0.0001   YYZZ     -19.8726
      XZZZ      -0.0000   YZZZ       0.0000   ZZZZ     -15.1518
 -----------------------------------------------------------------
Archival summary:
1\1\centos77-c2\SP\ProcedureUnspecified\BasisUnspecified\31(2)\shihchen\SunJul1220:29:152020SunJul1220:29:152020\0\\#,ProcedureUnspecified,BasisUnspecified,\\0,2\N\O,1,1.15861\O,1,1.15924,2,119.534\O,1,1.4073,2,120.264,3,-180,0\\\@

 Total job time:  17.31s(wall), 80.91s(cpu) 
 Sun Jul 12 20:29:15 2020

        *************************************************************
        *                                                           *
        *  Thank you very much for using Q-Chem.  Have a nice day.  *
        *                                                           *
        *************************************************************


