                  Welcome to Q-Chem
     A Quantum Leap Into The Future Of Chemistry


 Q-Chem 5.3 (devel), Q-Chem, Inc., Pleasanton, CA (2020)

 Yihan Shao,  Zhengting Gan,  E. Epifanovsky,  A. T. B. Gilbert,  M. Wormit,  
 J. Kussmann,  A. W. Lange,  A. Behn,  Jia Deng,  Xintian Feng,  D. Ghosh,  
 M. Goldey,  P. R. Horn,  L. D. Jacobson,  I. Kaliman,  T. Kus,  A. Landau,  
 Jie Liu,  E. I. Proynov,  R. M. Richard,  R. P. Steele,  E. J. Sundstrom,  
 H. L. Woodcock III,  P. M. Zimmerman,  D. Zuev,  B. Alam,  B. Albrecht,  
 E. Alguire,  S. A. Baeppler,  D. Barton,  Z. Benda,  Y. A. Bernard,  
 E. J. Berquist,  K. B. Bravaya,  H. Burton,  K. Carter-Fenk,  D. Casanova,  
 Chun-Min Chang,  Yunqing Chen,  A. Chien,  K. D. Closser,  M. P. Coons,  
 S. Coriani,  S. Dasgupta,  A. L. Dempwolff,  M. Diedenhofen,  Hainam Do,  
 R. G. Edgar,  Po-Tung Fang,  S. Faraji,  S. Fatehi,  Qingguo Feng,  
 J. Fosso-Tande,  J. Gayvert,  Qinghui Ge,  A. Ghysels,  G. Gidofalvi,  
 J. Gomes,  J. Gonthier,  A. Gunina,  D. Hait,  M. W. D. Hanson-Heine,  
 P. H. P. Harbach,  A. W. Hauser,  M. F. Herbst,  J. E. Herr,  
 E. G. Hohenstein,  Z. C. Holden,  Kerwin Hui,  B. C. Huynh,  T.-C. Jagau,  
 Hyunjun Ji,  B. Kaduk,  K. Khistyaev,  Jaehoon Kim,  P. Klunzinger,  K. Koh,  
 D. Kosenkov,  L. Koulias,  T. Kowalczyk,  C. M. Krauter,  A. Kunitsa,  
 Ka Un Lao,  A. Laurent,  K. V. Lawler,  Joonho Lee,  D. Lefrancois,  
 S. Lehtola,  D. S. Levine,  Yi-Pei Li,  You-Sheng Lin,  Fenglai Liu,  
 Kuan-Yu Liu,  E. Livshits,  M. Loipersberger,  A. Luenser,  P. Manohar,  
 E. Mansoor,  S. F. Manzer,  Shan-Ping Mao,  Yuezhi Mao,  N. Mardirossian,  
 A. V. Marenich,  T. Markovich,  L. A. Martinez-Martinez,  S. A. Maurer,  
 N. J. Mayhall,  S. C. McKenzie,  J.-M. Mewes,  P. Morgante,  A. F. Morrison,  
 J. W. Mullinax,  K. Nanda,  T. S. Nguyen-Beck,  R. Olivares-Amaya,  
 K. J. Oosterbaan,  J. A. Parkhill,  S. K. Paul,  F. Pavosevic,  Zheng Pei,  
 T. M. Perrine,  F. Plasser,  P. Pokhilko,  S. Prager,  A. Prociuk,  
 E. Ramos,  B. Rana,  D. R. Rehn,  F. Rob,  M. Scheurer,  M. Schneider,  
 N. Sergueev,  S. M. Sharada,  S. Sharma,  D. W. Small,  T. Stauch,  
 C. J. Stein,  T. Stein,  Yu-Chuan Su,  S. P. Veccham,  Zhen Tao,  
 A. J. W. Thom,  A. Tkatchenko,  T. Tsuchimochi,  N. M. Tubman,  L. Vogt,  
 M. L. Vidal,  O. Vydrov,  M. A. Watson,  J. Wenzel,  M. de Wergifosse,  
 T. A. Wesolowski,  A. White,  J. Witte,  A. Yamada,  Jun Yang,  K. Yao,  
 S. Yeganeh,  S. R. Yost,  Zhi-Qiang You,  A. Zech,  Igor Ying Zhang,  
 Xing Zhang,  Yan Zhao,  Ying Zhu,  B. R. Brooks,  G. K. L. Chan,  
 C. J. Cramer,  M. S. Gordon,  W. J. Hehre,  A. Klamt,  M. W. Schmidt,  
 C. D. Sherrill,  D. G. Truhlar,  A. Aspuru-Guzik,  R. Baer,  A. T. Bell,  
 N. A. Besley,  Jeng-Da Chai,  A. E. DePrince, III,  R. A. DiStasio Jr.,  
 A. Dreuw,  B. D. Dunietz,  T. R. Furlani,  Chao-Ping Hsu,  Yousung Jung,  
 Jing Kong,  D. S. Lambrecht,  WanZhen Liang,  C. Ochsenfeld,  
 V. A. Rassolov,  L. V. Slipchenko,  J. E. Subotnik,  T. Van Voorhis,  
 J. M. Herbert,  A. I. Krylov,  P. M. W. Gill,  M. Head-Gordon

 Contributors to earlier versions of Q-Chem not listed above: 
 R. D. Adamson,  B. Austin,  J. Baker,  G. J. O. Beran,  K. Brandhorst,  
 S. T. Brown,  E. F. C. Byrd,  A. K. Chakraborty,  C.-L. Cheng,  
 Siu Hung Chien,  D. M. Chipman,  D. L. Crittenden,  H. Dachsel,  
 R. J. Doerksen,  A. D. Dutoi,  L. Fusti-Molnar,  W. A. Goddard III,  
 A. Golubeva-Zadorozhnaya,  S. R. Gwaltney,  G. Hawkins,  A. Heyden,  
 S. Hirata,  G. Kedziora,  F. J. Keil,  C. Kelley,  Jihan Kim,  R. A. King,  
 R. Z. Khaliullin,  P. P. Korambath,  W. Kurlancheek,  A. M. Lee,  M. S. Lee,  
 S. V. Levchenko,  Ching Yeh Lin,  D. Liotard,  R. C. Lochan,  I. Lotan,  
 P. E. Maslen,  N. Nair,  D. P. O'Neill,  D. Neuhauser,  E. Neuscamman,  
 C. M. Oana,  R. Olson,  B. Peters,  R. Peverati,  P. A. Pieniazek,  
 Y. M. Rhee,  J. Ritchie,  M. A. Rohrdanz,  E. Rosta,  N. J. Russ,  
 H. F. Schaefer III,  N. E. Schultz,  N. Shenvi,  A. C. Simmonett,  A. Sodt,  
 D. Stuck,  K. S. Thanthiriwatte,  V. Vanovschi,  Tao Wang,  A. Warshel,  
 C. F. Williams,  Q. Wu,  X. Xu,  W. Zhang

 Please cite Q-Chem as follows:
 Y. Shao et al., Mol. Phys. 113, 184-215 (2015)
 DOI: 10.1080/00268976.2014.952696

 Q-Chem 5.3.0 for Intel X86 EM64T Linux

 Parts of Q-Chem use Armadillo 9.800.1 (Horizon Scraper).
 http://arma.sourceforge.net/

 Q-Chem begins on Sun Jul 12 20:21:35 2020  

Host: centos77-c2
0

     Scratch files written to /tmp/28905.centos77-h1/qchem121803//
Processing $rem in /opt/qchem-5.3.0-intel2020u1//config/preferences:
Processing $rem in /home/shihchengli/.qchemrc:

Checking the input file for inconsistencies... 	...done.

--------------------------------------------------------------
User input:
--------------------------------------------------------------
$rem
   JOBTYPE  sp
   EXCHANGE   omegaB97X-D
   BASIS   6-311+G(2df,2pd)
   UNRESTRICTED   True
   max_scf_cycles   250
   geom_opt_max_cycles   1500
   basis2 6-31G*
   scf_algorithm rca_diis
   SYM_IGNORE  TRUE
   print_input   true
   geom_opt_dmax   80
   pop_mulliken false
   XC_GRID 000075000302
$end

$molecule
0 2
N       -0.0002130100     -0.0523415011     0.0927120379
O       0.0001299577     -1.2392853678     -0.0341809449
O       -1.0201494881     0.6439128483     -0.0292817386
O       1.0202328223     0.6437859426     -0.0292493544
$end
--------------------------------------------------------------
 ----------------------------------------------------------------
             Standard Nuclear Orientation (Angstroms)
    I     Atom           X                Y                Z
 ----------------------------------------------------------------
    1      N      -0.0002130100    -0.0523415011     0.0927120379
    2      O       0.0001299577    -1.2392853678    -0.0341809449
    3      O      -1.0201494881     0.6439128483    -0.0292817386
    4      O       1.0202328223     0.6437859426    -0.0292493544
 ----------------------------------------------------------------
 Nuclear Repulsion Energy =         120.80365773 hartrees
 There are       16 alpha and       15 beta electrons
 Requested basis set is 6-311+G(2df,2pd)
 There are 32 shells and 136 basis functions

 Total QAlloc Memory Limit   2000 MB
 Mega-Array Size       188 MB
 MEM_STATIC part       192 MB

                       Distance Matrix (Angstroms)
             N (  1)   O (  2)   O (  3)
   O (  2)  1.193708
   O (  3)  1.240936  2.141829
   O (  4)  1.241281  2.141633  2.040382
 
 A cutoff of  1.0D-09 yielded    513 shell pairs
 There are      9519 function pairs (     12579 Cartesian)
 Smallest overlap matrix eigenvalue = 1.21E-03

 Scale SEOQF with 1.000000e-01/1.000000e-01/1.000000e-01

 Standard Electronic Orientation quadrupole field applied
 Nucleus-field energy     =     0.0000000019 hartrees
 Requested basis set is 6-31G(d)
 There are 16 shells and 56 basis functions
 A cutoff of  1.0D-09 yielded    133 shell pairs
 There are      1681 function pairs (      1935 Cartesian)
 Smallest overlap matrix eigenvalue = 5.89E-03
 Guess from superposition of atomic densities
 Warning:  Energy on first SCF cycle will be non-variational
 SAD guess density has 31.000000 electrons
 Long-range K will be added via erf
 Coulomb attenuation parameter = 0.2 bohr**(-1)
 An unrestricted hybrid HF-DFT SCF calculation will be
 performed using Relaxed Constraint Minimization + Pulay DIIS
 Exchange:     0.2220 Hartree-Fock + 1.0000 wB97X-D + LR-HF
 Correlation:  1.0000 wB97X-D
 Using Euler-Maclaurin-Lebedev (75,302) quadrature formula
 Dispersion:   Grimme D
 SCF converges when DIIS error is below 1.0E-04
 using 6 threads for integral computing
 -------------------------------------------------------
 OpenMP Integral computing Module                
 Release: version 1.0, May 2013, Q-Chem Inc. Pittsburgh 
 -------------------------------------------------------
 using 6 threads for integral computing
 -------------------------------------------------------
 OpenMP Integral computing Module                
 Release: version 1.0, May 2013, Q-Chem Inc. Pittsburgh 
 -------------------------------------------------------
 ---------------------------------------
  Cycle       Energy         DIIS Error
 ---------------------------------------
    1    -281.0368333477      1.15E-01
    2    -279.9073824447      2.61E-02
    3    -279.9935356699      3.99E-03
    4    -280.1046698601      3.77E-03
    5    -280.1064176799      6.74E-04 Done RCA. Switching to DIIS
    6    -280.1088237040      7.15E-04
    7    -280.1090584707      1.72E-04
    8    -280.1091542056      1.18E-04
    9    -280.1092370245      3.85E-05 Convergence criterion met
 ---------------------------------------
 <S^2> = 0.7559
 SCF time:  CPU 20.20 s  wall 5.28 s
 SCF   energy in the small basis set = -280.10923702
 Total energy in the small basis set = -280.10923702
 ----------------------------------------------------
  Cycle       Energy    
 ----------------------------------------------------
    1     -28.3690257333     -2.84E+01
 Long-range K will be added via erf
 Coulomb attenuation parameter = 0.2 bohr**(-1)
 An unrestricted hybrid HF-DFT SCF calculation will be
 performed using Relaxed Constraint Minimization + Pulay DIIS
 Exchange:     0.2220 Hartree-Fock + 1.0000 wB97X-D + LR-HF
 Correlation:  1.0000 wB97X-D
 Using Euler-Maclaurin-Lebedev (75,302) quadrature formula
 Dispersion:   Grimme D
 SCF converges when DIIS error is below 1.0E-05
 Basis2 calculation detected. Using small basis as guess for larger.
 SCFMinFind is unable to tell whether the solution found is close.
 Resetting ReadMinima to 0 and attempting to follow guess.
 SCFMinFind following SCF Guess.
 using 6 threads for integral computing
 -------------------------------------------------------
 OpenMP Integral computing Module                
 Release: version 1.0, May 2013, Q-Chem Inc. Pittsburgh 
 -------------------------------------------------------
 using 6 threads for integral computing
 -------------------------------------------------------
 OpenMP Integral computing Module                
 Release: version 1.0, May 2013, Q-Chem Inc. Pittsburgh 
 -------------------------------------------------------
 ---------------------------------------
  Cycle       Energy         DIIS Error
 ---------------------------------------
    1    -280.1768672470      9.94E-03
    2    -280.1808166311      5.10E-03
    3    -280.1939076763      1.66E-03
    4    -280.2130783002      1.29E-03
    5    -280.2149986060      3.23E-04 Done RCA. Switching to DIIS
    6    -280.2173521014      4.63E-04
    7    -280.2178389867      7.36E-05
    8    -280.2179036670      4.32E-05
    9    -280.2179906634      4.77E-05
   10    -280.2180472881      1.46E-05
   11    -280.2180501005      5.09E-06 Convergence criterion met
 ---------------------------------------
 <S^2> = 0.7576
 SCF time:  CPU 54.44 s  wall 10.90 s
 SCF   energy in the final basis set = -280.21805010
 Total energy in the final basis set = -280.21805010
 
 --------------------------------------------------------------
 
                    Orbital Energies (a.u.)
 --------------------------------------------------------------
 
 Alpha MOs
 -- Occupied --
-19.3895 -19.3893 -19.3602 -14.7857  -1.4769  -1.2638  -1.2363  -0.7925
 -0.7378  -0.7155  -0.7057  -0.5525  -0.5151  -0.4884  -0.4809  -0.4595
 -- Virtual --
 -0.0423   0.0910   0.1381   0.1393   0.1560   0.2268   0.2298   0.2396
  0.2578   0.2580   0.2756   0.3278   0.3301   0.3375   0.3393   0.3645
  0.3653   0.4330   0.4385   0.4547   0.7600   0.7930   0.8314   0.8608
  0.9777   0.9843   0.9892   1.0456   1.0526   1.0846   1.0887   1.1191
  1.1216   1.1489   1.1715   1.3464   1.3911   1.4723   1.5193   1.5454
  1.5758   1.5832   1.5966   1.6243   1.7966   1.8309   1.8528   1.9966
  2.0737   2.2224   2.2959   2.4272   2.4368   2.5002   2.6614   2.7322
  3.6240   3.6358   3.6423   3.7843   3.7960   3.9407   4.0059   4.2822
  4.3397   4.3859   4.4223   4.5078   4.5825   4.6049   4.6495   4.9675
  4.9843   4.9981   5.0019   5.0044   5.0217   5.0289   5.0684   5.0974
  5.1067   5.1113   5.1493   5.1985   5.2188   5.2252   5.3291   5.5280
  5.5745   5.6616   5.7841   5.7974   6.0982   6.1723   6.3606   6.5621
  6.5631   6.6868   6.7315   6.7366   6.7687   6.7996   6.8200   6.8661
  7.0562   7.1668   7.1813   7.1931   7.3492   7.3878   7.5379   7.5615
  7.7730   7.8075   7.9585   7.9899  36.1790  50.0497  50.1561  50.2181
 
 Beta MOs
 -- Occupied --
-19.3770 -19.3769 -19.3573 -14.7866  -1.4656  -1.2491  -1.2061  -0.7734
 -0.7343  -0.6936  -0.6840  -0.4765  -0.4762  -0.4654  -0.4609
 -- Virtual --
 -0.1685  -0.0382   0.0907   0.1380   0.1384   0.1554   0.2275   0.2310
  0.2404   0.2575   0.2576   0.2839   0.3290   0.3291   0.3367   0.3393
  0.3641   0.3762   0.4356   0.4422   0.4662   0.7592   0.7946   0.8344
  0.8651   0.9831   0.9903   1.0014   1.0512   1.0584   1.0867   1.0996
  1.1208   1.1284   1.1726   1.1746   1.3548   1.4022   1.4915   1.5334
  1.5562   1.5873   1.6019   1.6039   1.6353   1.8071   1.8389   1.8626
  2.0221   2.0794   2.2265   2.3004   2.4382   2.4445   2.5022   2.6755
  2.7414   3.6222   3.6372   3.6435   3.7853   3.7989   3.9418   4.0167
  4.2872   4.3491   4.3928   4.4277   4.5152   4.5829   4.6068   4.6502
  4.9930   5.0149   5.0237   5.0267   5.0364   5.0451   5.0464   5.0926
  5.1168   5.1251   5.1324   5.1615   5.2118   5.2323   5.2548   5.3468
  5.5378   5.5920   5.6792   5.7927   5.8055   6.1133   6.1973   6.3691
  6.5730   6.5732   6.7175   6.7681   6.7701   6.8085   6.8338   6.8364
  6.8905   7.0866   7.1837   7.1919   7.2031   7.3625   7.4223   7.5592
  7.5737   7.7918   7.8182   7.9653   7.9936  36.1781  50.0613  50.1678
 50.2207
 --------------------------------------------------------------
 
 -----------------------------------------------------------------
                    Cartesian Multipole Moments
 -----------------------------------------------------------------
    Charge (ESU x 10^10)
                 0.0000
    Dipole Moment (Debye)
         X       0.0014      Y       0.1413      Z       0.2276
       Tot       0.2679
    Quadrupole Moments (Debye-Ang)
        XX     -22.2495     XY       0.0011     YY     -23.0740
        XZ      -0.0002     YZ      -0.0706     ZZ     -19.9839
    Octopole Moments (Debye-Ang^2)
       XXX       0.0045    XXY      -0.6093    XYY       0.0011
       YYY       1.5191    XXZ      -0.1684    XYZ       0.0000
       YYZ      -0.3015    XZZ      -0.0009    YZZ      -0.2156
       ZZZ       0.1017
    Hexadecapole Moments (Debye-Ang^3)
      XXXX     -81.7479   XXXY       0.0039   XXYY     -29.4764
      XYYY       0.0048   YYYY     -92.8105   XXXZ      -0.0006
      XXYZ      -0.3315   XYYZ      -0.0003   YYYZ       0.1169
      XXZZ     -16.5922   XYZZ       0.0006   YYZZ     -17.9508
      XZZZ      -0.0001   YZZZ      -0.0096   ZZZZ     -15.2512
 -----------------------------------------------------------------
Archival summary:
1\1\centos77-c2\SP\ProcedureUnspecified\BasisUnspecified\31(2)\shihchen\SunJul1220:21:532020SunJul1220:21:532020\0\\#,ProcedureUnspecified,BasisUnspecified,\\0,2\N\O,1,1.19371\O,1,1.24094,2,123.208\O,1,1.24128,2,123.158,3,-158.326,0\\\@

 Total job time:  18.11s(wall), 78.31s(cpu) 
 Sun Jul 12 20:21:53 2020

        *************************************************************
        *                                                           *
        *  Thank you very much for using Q-Chem.  Have a nice day.  *
        *                                                           *
        *************************************************************


