                  Welcome to Q-Chem
     A Quantum Leap Into The Future Of Chemistry


 Q-Chem 5.3 (devel), Q-Chem, Inc., Pleasanton, CA (2020)

 Yihan Shao,  Zhengting Gan,  E. Epifanovsky,  A. T. B. Gilbert,  M. Wormit,  
 J. Kussmann,  A. W. Lange,  A. Behn,  Jia Deng,  Xintian Feng,  D. Ghosh,  
 M. Goldey,  P. R. Horn,  L. D. Jacobson,  I. Kaliman,  T. Kus,  A. Landau,  
 Jie Liu,  E. I. Proynov,  R. M. Richard,  R. P. Steele,  E. J. Sundstrom,  
 H. L. Woodcock III,  P. M. Zimmerman,  D. Zuev,  B. Alam,  B. Albrecht,  
 E. Alguire,  S. A. Baeppler,  D. Barton,  Z. Benda,  Y. A. Bernard,  
 E. J. Berquist,  K. B. Bravaya,  H. Burton,  K. Carter-Fenk,  D. Casanova,  
 Chun-Min Chang,  Yunqing Chen,  A. Chien,  K. D. Closser,  M. P. Coons,  
 S. Coriani,  S. Dasgupta,  A. L. Dempwolff,  M. Diedenhofen,  Hainam Do,  
 R. G. Edgar,  Po-Tung Fang,  S. Faraji,  S. Fatehi,  Qingguo Feng,  
 J. Fosso-Tande,  J. Gayvert,  Qinghui Ge,  A. Ghysels,  G. Gidofalvi,  
 J. Gomes,  J. Gonthier,  A. Gunina,  D. Hait,  M. W. D. Hanson-Heine,  
 P. H. P. Harbach,  A. W. Hauser,  M. F. Herbst,  J. E. Herr,  
 E. G. Hohenstein,  Z. C. Holden,  Kerwin Hui,  B. C. Huynh,  T.-C. Jagau,  
 Hyunjun Ji,  B. Kaduk,  K. Khistyaev,  Jaehoon Kim,  P. Klunzinger,  K. Koh,  
 D. Kosenkov,  L. Koulias,  T. Kowalczyk,  C. M. Krauter,  A. Kunitsa,  
 Ka Un Lao,  A. Laurent,  K. V. Lawler,  Joonho Lee,  D. Lefrancois,  
 S. Lehtola,  D. S. Levine,  Yi-Pei Li,  You-Sheng Lin,  Fenglai Liu,  
 Kuan-Yu Liu,  E. Livshits,  M. Loipersberger,  A. Luenser,  P. Manohar,  
 E. Mansoor,  S. F. Manzer,  Shan-Ping Mao,  Yuezhi Mao,  N. Mardirossian,  
 A. V. Marenich,  T. Markovich,  L. A. Martinez-Martinez,  S. A. Maurer,  
 N. J. Mayhall,  S. C. McKenzie,  J.-M. Mewes,  P. Morgante,  A. F. Morrison,  
 J. W. Mullinax,  K. Nanda,  T. S. Nguyen-Beck,  R. Olivares-Amaya,  
 K. J. Oosterbaan,  J. A. Parkhill,  S. K. Paul,  F. Pavosevic,  Zheng Pei,  
 T. M. Perrine,  F. Plasser,  P. Pokhilko,  S. Prager,  A. Prociuk,  
 E. Ramos,  B. Rana,  D. R. Rehn,  F. Rob,  M. Scheurer,  M. Schneider,  
 N. Sergueev,  S. M. Sharada,  S. Sharma,  D. W. Small,  T. Stauch,  
 C. J. Stein,  T. Stein,  Yu-Chuan Su,  S. P. Veccham,  Zhen Tao,  
 A. J. W. Thom,  A. Tkatchenko,  T. Tsuchimochi,  N. M. Tubman,  L. Vogt,  
 M. L. Vidal,  O. Vydrov,  M. A. Watson,  J. Wenzel,  M. de Wergifosse,  
 T. A. Wesolowski,  A. White,  J. Witte,  A. Yamada,  Jun Yang,  K. Yao,  
 S. Yeganeh,  S. R. Yost,  Zhi-Qiang You,  A. Zech,  Igor Ying Zhang,  
 Xing Zhang,  Yan Zhao,  Ying Zhu,  B. R. Brooks,  G. K. L. Chan,  
 C. J. Cramer,  M. S. Gordon,  W. J. Hehre,  A. Klamt,  M. W. Schmidt,  
 C. D. Sherrill,  D. G. Truhlar,  A. Aspuru-Guzik,  R. Baer,  A. T. Bell,  
 N. A. Besley,  Jeng-Da Chai,  A. E. DePrince, III,  R. A. DiStasio Jr.,  
 A. Dreuw,  B. D. Dunietz,  T. R. Furlani,  Chao-Ping Hsu,  Yousung Jung,  
 Jing Kong,  D. S. Lambrecht,  WanZhen Liang,  C. Ochsenfeld,  
 V. A. Rassolov,  L. V. Slipchenko,  J. E. Subotnik,  T. Van Voorhis,  
 J. M. Herbert,  A. I. Krylov,  P. M. W. Gill,  M. Head-Gordon

 Contributors to earlier versions of Q-Chem not listed above: 
 R. D. Adamson,  B. Austin,  J. Baker,  G. J. O. Beran,  K. Brandhorst,  
 S. T. Brown,  E. F. C. Byrd,  A. K. Chakraborty,  C.-L. Cheng,  
 Siu Hung Chien,  D. M. Chipman,  D. L. Crittenden,  H. Dachsel,  
 R. J. Doerksen,  A. D. Dutoi,  L. Fusti-Molnar,  W. A. Goddard III,  
 A. Golubeva-Zadorozhnaya,  S. R. Gwaltney,  G. Hawkins,  A. Heyden,  
 S. Hirata,  G. Kedziora,  F. J. Keil,  C. Kelley,  Jihan Kim,  R. A. King,  
 R. Z. Khaliullin,  P. P. Korambath,  W. Kurlancheek,  A. M. Lee,  M. S. Lee,  
 S. V. Levchenko,  Ching Yeh Lin,  D. Liotard,  R. C. Lochan,  I. Lotan,  
 P. E. Maslen,  N. Nair,  D. P. O'Neill,  D. Neuhauser,  E. Neuscamman,  
 C. M. Oana,  R. Olson,  B. Peters,  R. Peverati,  P. A. Pieniazek,  
 Y. M. Rhee,  J. Ritchie,  M. A. Rohrdanz,  E. Rosta,  N. J. Russ,  
 H. F. Schaefer III,  N. E. Schultz,  N. Shenvi,  A. C. Simmonett,  A. Sodt,  
 D. Stuck,  K. S. Thanthiriwatte,  V. Vanovschi,  Tao Wang,  A. Warshel,  
 C. F. Williams,  Q. Wu,  X. Xu,  W. Zhang

 Please cite Q-Chem as follows:
 Y. Shao et al., Mol. Phys. 113, 184-215 (2015)
 DOI: 10.1080/00268976.2014.952696

 Q-Chem 5.3.0 for Intel X86 EM64T Linux

 Parts of Q-Chem use Armadillo 9.800.1 (Horizon Scraper).
 http://arma.sourceforge.net/

 Q-Chem begins on Sun Jul 12 20:23:58 2020  

Host: centos77-c2
0

     Scratch files written to /tmp/28905.centos77-h1/qchem122385//
Processing $rem in /opt/qchem-5.3.0-intel2020u1//config/preferences:
Processing $rem in /home/shihchengli/.qchemrc:

Checking the input file for inconsistencies... 	...done.

--------------------------------------------------------------
User input:
--------------------------------------------------------------
$rem
   JOBTYPE  sp
   EXCHANGE   omegaB97X-D
   BASIS   6-311+G(2df,2pd)
   UNRESTRICTED   True
   max_scf_cycles   250
   geom_opt_max_cycles   1500
   basis2 6-31G*
   scf_algorithm rca_diis
   SYM_IGNORE  TRUE
   print_input   true
   geom_opt_dmax   80
   pop_mulliken false
   XC_GRID 000075000302
$end

$molecule
0 2
N       0.1021970265     -0.0491009616     -0.0000000000
O       0.0509815839     -1.2417343227     0.0000000000
O       -1.1051358895     0.7253523710     0.0000000000
O       0.9519575609     0.5615548353     0.0000000000
$end
--------------------------------------------------------------
 ----------------------------------------------------------------
             Standard Nuclear Orientation (Angstroms)
    I     Atom           X                Y                Z
 ----------------------------------------------------------------
    1      N       0.1021970265    -0.0491009616     0.0000000000
    2      O       0.0509815839    -1.2417343227     0.0000000000
    3      O      -1.1051358895     0.7253523710     0.0000000000
    4      O       0.9519575609     0.5615548353     0.0000000000
 ----------------------------------------------------------------
 Nuclear Repulsion Energy =         121.85922835 hartrees
 There are       16 alpha and       15 beta electrons
 Requested basis set is 6-311+G(2df,2pd)
 There are 32 shells and 136 basis functions

 Total QAlloc Memory Limit   2000 MB
 Mega-Array Size       188 MB
 MEM_STATIC part       192 MB

                       Distance Matrix (Angstroms)
             N (  1)   O (  2)   O (  3)
   O (  2)  1.193733
   O (  3)  1.434375  2.281674
   O (  4)  1.046419  2.015840  2.063604
 
 A cutoff of  1.0D-09 yielded    512 shell pairs
 There are      9473 function pairs (     12527 Cartesian)
 Smallest overlap matrix eigenvalue = 7.08E-04

 Scale SEOQF with 1.000000e-01/1.000000e-01/1.000000e-01

 Standard Electronic Orientation quadrupole field applied
 Nucleus-field energy     =     0.0000000020 hartrees
 Requested basis set is 6-31G(d)
 There are 16 shells and 56 basis functions
 A cutoff of  1.0D-09 yielded    133 shell pairs
 There are      1681 function pairs (      1935 Cartesian)
 Smallest overlap matrix eigenvalue = 4.19E-03
 Guess from superposition of atomic densities
 Warning:  Energy on first SCF cycle will be non-variational
 SAD guess density has 31.000000 electrons
 Long-range K will be added via erf
 Coulomb attenuation parameter = 0.2 bohr**(-1)
 An unrestricted hybrid HF-DFT SCF calculation will be
 performed using Relaxed Constraint Minimization + Pulay DIIS
 Exchange:     0.2220 Hartree-Fock + 1.0000 wB97X-D + LR-HF
 Correlation:  1.0000 wB97X-D
 Using Euler-Maclaurin-Lebedev (75,302) quadrature formula
 Dispersion:   Grimme D
 SCF converges when DIIS error is below 1.0E-04
 using 6 threads for integral computing
 -------------------------------------------------------
 OpenMP Integral computing Module                
 Release: version 1.0, May 2013, Q-Chem Inc. Pittsburgh 
 -------------------------------------------------------
 using 6 threads for integral computing
 -------------------------------------------------------
 OpenMP Integral computing Module                
 Release: version 1.0, May 2013, Q-Chem Inc. Pittsburgh 
 -------------------------------------------------------
 ---------------------------------------
  Cycle       Energy         DIIS Error
 ---------------------------------------
    1    -281.2295804583      1.29E-01
    2    -279.8519336401      2.51E-02
    3    -279.9322920601      4.98E-03
    4    -280.0414623214      4.92E-03
    5    -280.0451099378      9.95E-04 Done RCA. Switching to DIIS
    6    -280.0511287687      6.46E-04
    7    -280.0522080853      7.51E-04
    8    -280.0530635102      2.51E-04
    9    -280.0534702516      6.30E-05 Convergence criterion met
 ---------------------------------------
 <S^2> = 0.7539
 SCF time:  CPU 19.45 s  wall 5.08 s
 SCF   energy in the small basis set = -280.05347025
 Total energy in the small basis set = -280.05347025
 ----------------------------------------------------
  Cycle       Energy    
 ----------------------------------------------------
    1     -28.4765474869     -2.85E+01
 Long-range K will be added via erf
 Coulomb attenuation parameter = 0.2 bohr**(-1)
 An unrestricted hybrid HF-DFT SCF calculation will be
 performed using Relaxed Constraint Minimization + Pulay DIIS
 Exchange:     0.2220 Hartree-Fock + 1.0000 wB97X-D + LR-HF
 Correlation:  1.0000 wB97X-D
 Using Euler-Maclaurin-Lebedev (75,302) quadrature formula
 Dispersion:   Grimme D
 SCF converges when DIIS error is below 1.0E-05
 Basis2 calculation detected. Using small basis as guess for larger.
 SCFMinFind is unable to tell whether the solution found is close.
 Resetting ReadMinima to 0 and attempting to follow guess.
 SCFMinFind following SCF Guess.
 using 6 threads for integral computing
 -------------------------------------------------------
 OpenMP Integral computing Module                
 Release: version 1.0, May 2013, Q-Chem Inc. Pittsburgh 
 -------------------------------------------------------
 using 6 threads for integral computing
 -------------------------------------------------------
 OpenMP Integral computing Module                
 Release: version 1.0, May 2013, Q-Chem Inc. Pittsburgh 
 -------------------------------------------------------
 ---------------------------------------
  Cycle       Energy         DIIS Error
 ---------------------------------------
    1    -280.0905214364      1.06E-02
    2    -280.0256952424      9.46E-03
    3    -280.0706108620      3.65E-03
    4    -280.1214265291      4.02E-03
    5    -280.1385849759      5.05E-04 Done RCA. Switching to DIIS
    6    -280.1687722253      6.87E-04
    7    -280.1692929406      6.10E-04
    8    -280.1697788666      5.93E-04
    9    -280.1708381019      4.48E-04
   10    -280.1712813444      3.20E-04
   11    -280.1714733294      1.81E-04
   12    -280.1715332840      8.47E-05
   13    -280.1715493804      5.61E-06 Convergence criterion met
 ---------------------------------------
 <S^2> = 0.7551
 SCF time:  CPU 60.00 s  wall 11.36 s
 SCF   energy in the final basis set = -280.17154938
 Total energy in the final basis set = -280.17154938
 
 --------------------------------------------------------------
 
                    Orbital Energies (a.u.)
 --------------------------------------------------------------
 
 Alpha MOs
 -- Occupied --
-19.3980 -19.3714 -19.3304 -14.7710  -1.5371  -1.2834  -1.1960  -0.7878
 -0.7663  -0.7340  -0.6934  -0.5651  -0.4947  -0.4914  -0.4706  -0.4471
 -- Virtual --
  0.0099   0.0703   0.1201   0.1375   0.1389   0.1556   0.2399   0.2417
  0.2547   0.2580   0.2610   0.3238   0.3333   0.3430   0.3511   0.3518
  0.4265   0.4407   0.4435   0.6248   0.7460   0.8057   0.8608   0.9296
  0.9356   0.9990   1.0348   1.0448   1.0817   1.0826   1.1041   1.1073
  1.1273   1.1639   1.1857   1.3078   1.3950   1.4847   1.5046   1.5688
  1.5691   1.5736   1.5964   1.6376   1.7614   1.9111   1.9574   1.9722
  2.0140   2.2497   2.2979   2.3676   2.4994   2.6309   2.6725   2.8078
  3.5908   3.6248   3.6398   3.6427   3.8126   3.9576   4.0423   4.1639
  4.2766   4.3332   4.4155   4.4658   4.6231   4.6487   4.8257   4.9629
  4.9681   4.9898   4.9976   5.0093   5.0305   5.0330   5.0535   5.0655
  5.0852   5.1400   5.1495   5.2377   5.2470   5.3368   5.4232   5.4692
  5.5947   5.6366   5.7431   5.8925   5.9938   6.1223   6.4399   6.6700
  6.7141   6.7289   6.7328   6.7910   6.8067   6.8161   6.8526   7.0279
  7.0909   7.1590   7.2603   7.2640   7.3025   7.4206   7.5795   7.6244
  7.7520   7.8678   8.1073   8.5430  36.3748  49.9258  50.2471  50.5432
 
 Beta MOs
 -- Occupied --
-19.3767 -19.3688 -19.3286 -14.7718  -1.5329  -1.2790  -1.1403  -0.7670
 -0.7655  -0.7200  -0.6853  -0.4780  -0.4749  -0.4614  -0.4499
 -- Virtual --
 -0.1400   0.0110   0.0778   0.1280   0.1381   0.1397   0.1555   0.2411
  0.2435   0.2579   0.2582   0.2607   0.3266   0.3326   0.3417   0.3508
  0.3513   0.4299   0.4434   0.4483   0.6316   0.7459   0.8127   0.8633
  0.9337   0.9376   1.0029   1.0354   1.0649   1.0872   1.0882   1.1085
  1.1199   1.1293   1.1859   1.1884   1.3131   1.4120   1.5097   1.5282
  1.5764   1.5781   1.5882   1.6096   1.6466   1.7777   1.9170   1.9611
  1.9827   2.0331   2.2520   2.3169   2.3706   2.5033   2.6344   2.6833
  2.8130   3.5913   3.6251   3.6404   3.6421   3.8139   3.9630   4.0515
  4.1638   4.2760   4.3361   4.4198   4.4679   4.6364   4.6476   4.8308
  4.9828   5.0109   5.0173   5.0393   5.0547   5.0548   5.0724   5.0757
  5.0776   5.1228   5.1488   5.1684   5.2515   5.2560   5.3655   5.4300
  5.4890   5.6035   5.6432   5.7571   5.8983   6.0006   6.1459   6.4610
  6.7013   6.7426   6.7525   6.8012   6.8070   6.8270   6.8366   6.8689
  7.0634   7.1119   7.1615   7.2673   7.2862   7.3432   7.4213   7.5836
  7.6305   7.7601   7.8810   8.1130   8.5463  36.3740  49.9508  50.2487
 50.5453
 --------------------------------------------------------------
 
 -----------------------------------------------------------------
                    Cartesian Multipole Moments
 -----------------------------------------------------------------
    Charge (ESU x 10^10)
                -0.0000
    Dipole Moment (Debye)
         X       0.2397      Y       0.7320      Z       0.0000
       Tot       0.7702
    Quadrupole Moments (Debye-Ang)
        XX     -21.9065     XY       0.1662     YY     -23.2191
        XZ       0.0000     YZ       0.0000     ZZ     -19.9533
    Octopole Moments (Debye-Ang^2)
       XXX       0.3710    XXY      -0.6543    XYY       0.3845
       YYY       3.1656    XXZ      -0.0000    XYZ      -0.0000
       YYZ       0.0000    XZZ       1.1886    YZZ       0.0610
       ZZZ       0.0000
    Hexadecapole Moments (Debye-Ang^3)
      XXXX     -82.4918   XXXY       5.9521   XXYY     -30.2164
      XYYY       5.2830   YYYY     -93.7405   XXXZ      -0.0000
      XXYZ       0.0000   XYYZ      -0.0000   YYYZ       0.0000
      XXZZ     -16.8271   XYZZ       2.3610   YYZZ     -18.3226
      XZZZ      -0.0000   YZZZ       0.0000   ZZZZ     -15.0415
 -----------------------------------------------------------------
Archival summary:
1\1\centos77-c2\SP\ProcedureUnspecified\BasisUnspecified\31(2)\shihchen\SunJul1220:24:172020SunJul1220:24:172020\0\\#,ProcedureUnspecified,BasisUnspecified,\\0,2\N\O,1,1.04642\O,1,1.19373,2,128.161\O,1,1.43437,2,111.62,3,-180,0\\\@

 Total job time:  18.43s(wall), 83.54s(cpu) 
 Sun Jul 12 20:24:17 2020

        *************************************************************
        *                                                           *
        *  Thank you very much for using Q-Chem.  Have a nice day.  *
        *                                                           *
        *************************************************************


