                  Welcome to Q-Chem
     A Quantum Leap Into The Future Of Chemistry


 Q-Chem 5.3 (devel), Q-Chem, Inc., Pleasanton, CA (2020)

 Yihan Shao,  Zhengting Gan,  E. Epifanovsky,  A. T. B. Gilbert,  M. Wormit,  
 J. Kussmann,  A. W. Lange,  A. Behn,  Jia Deng,  Xintian Feng,  D. Ghosh,  
 M. Goldey,  P. R. Horn,  L. D. Jacobson,  I. Kaliman,  T. Kus,  A. Landau,  
 Jie Liu,  E. I. Proynov,  R. M. Richard,  R. P. Steele,  E. J. Sundstrom,  
 H. L. Woodcock III,  P. M. Zimmerman,  D. Zuev,  B. Alam,  B. Albrecht,  
 E. Alguire,  S. A. Baeppler,  D. Barton,  Z. Benda,  Y. A. Bernard,  
 E. J. Berquist,  K. B. Bravaya,  H. Burton,  K. Carter-Fenk,  D. Casanova,  
 Chun-Min Chang,  Yunqing Chen,  A. Chien,  K. D. Closser,  M. P. Coons,  
 S. Coriani,  S. Dasgupta,  A. L. Dempwolff,  M. Diedenhofen,  Hainam Do,  
 R. G. Edgar,  Po-Tung Fang,  S. Faraji,  S. Fatehi,  Qingguo Feng,  
 J. Fosso-Tande,  J. Gayvert,  Qinghui Ge,  A. Ghysels,  G. Gidofalvi,  
 J. Gomes,  J. Gonthier,  A. Gunina,  D. Hait,  M. W. D. Hanson-Heine,  
 P. H. P. Harbach,  A. W. Hauser,  M. F. Herbst,  J. E. Herr,  
 E. G. Hohenstein,  Z. C. Holden,  Kerwin Hui,  B. C. Huynh,  T.-C. Jagau,  
 Hyunjun Ji,  B. Kaduk,  K. Khistyaev,  Jaehoon Kim,  P. Klunzinger,  K. Koh,  
 D. Kosenkov,  L. Koulias,  T. Kowalczyk,  C. M. Krauter,  A. Kunitsa,  
 Ka Un Lao,  A. Laurent,  K. V. Lawler,  Joonho Lee,  D. Lefrancois,  
 S. Lehtola,  D. S. Levine,  Yi-Pei Li,  You-Sheng Lin,  Fenglai Liu,  
 Kuan-Yu Liu,  E. Livshits,  M. Loipersberger,  A. Luenser,  P. Manohar,  
 E. Mansoor,  S. F. Manzer,  Shan-Ping Mao,  Yuezhi Mao,  N. Mardirossian,  
 A. V. Marenich,  T. Markovich,  L. A. Martinez-Martinez,  S. A. Maurer,  
 N. J. Mayhall,  S. C. McKenzie,  J.-M. Mewes,  P. Morgante,  A. F. Morrison,  
 J. W. Mullinax,  K. Nanda,  T. S. Nguyen-Beck,  R. Olivares-Amaya,  
 K. J. Oosterbaan,  J. A. Parkhill,  S. K. Paul,  F. Pavosevic,  Zheng Pei,  
 T. M. Perrine,  F. Plasser,  P. Pokhilko,  S. Prager,  A. Prociuk,  
 E. Ramos,  B. Rana,  D. R. Rehn,  F. Rob,  M. Scheurer,  M. Schneider,  
 N. Sergueev,  S. M. Sharada,  S. Sharma,  D. W. Small,  T. Stauch,  
 C. J. Stein,  T. Stein,  Yu-Chuan Su,  S. P. Veccham,  Zhen Tao,  
 A. J. W. Thom,  A. Tkatchenko,  T. Tsuchimochi,  N. M. Tubman,  L. Vogt,  
 M. L. Vidal,  O. Vydrov,  M. A. Watson,  J. Wenzel,  M. de Wergifosse,  
 T. A. Wesolowski,  A. White,  J. Witte,  A. Yamada,  Jun Yang,  K. Yao,  
 S. Yeganeh,  S. R. Yost,  Zhi-Qiang You,  A. Zech,  Igor Ying Zhang,  
 Xing Zhang,  Yan Zhao,  Ying Zhu,  B. R. Brooks,  G. K. L. Chan,  
 C. J. Cramer,  M. S. Gordon,  W. J. Hehre,  A. Klamt,  M. W. Schmidt,  
 C. D. Sherrill,  D. G. Truhlar,  A. Aspuru-Guzik,  R. Baer,  A. T. Bell,  
 N. A. Besley,  Jeng-Da Chai,  A. E. DePrince, III,  R. A. DiStasio Jr.,  
 A. Dreuw,  B. D. Dunietz,  T. R. Furlani,  Chao-Ping Hsu,  Yousung Jung,  
 Jing Kong,  D. S. Lambrecht,  WanZhen Liang,  C. Ochsenfeld,  
 V. A. Rassolov,  L. V. Slipchenko,  J. E. Subotnik,  T. Van Voorhis,  
 J. M. Herbert,  A. I. Krylov,  P. M. W. Gill,  M. Head-Gordon

 Contributors to earlier versions of Q-Chem not listed above: 
 R. D. Adamson,  B. Austin,  J. Baker,  G. J. O. Beran,  K. Brandhorst,  
 S. T. Brown,  E. F. C. Byrd,  A. K. Chakraborty,  C.-L. Cheng,  
 Siu Hung Chien,  D. M. Chipman,  D. L. Crittenden,  H. Dachsel,  
 R. J. Doerksen,  A. D. Dutoi,  L. Fusti-Molnar,  W. A. Goddard III,  
 A. Golubeva-Zadorozhnaya,  S. R. Gwaltney,  G. Hawkins,  A. Heyden,  
 S. Hirata,  G. Kedziora,  F. J. Keil,  C. Kelley,  Jihan Kim,  R. A. King,  
 R. Z. Khaliullin,  P. P. Korambath,  W. Kurlancheek,  A. M. Lee,  M. S. Lee,  
 S. V. Levchenko,  Ching Yeh Lin,  D. Liotard,  R. C. Lochan,  I. Lotan,  
 P. E. Maslen,  N. Nair,  D. P. O'Neill,  D. Neuhauser,  E. Neuscamman,  
 C. M. Oana,  R. Olson,  B. Peters,  R. Peverati,  P. A. Pieniazek,  
 Y. M. Rhee,  J. Ritchie,  M. A. Rohrdanz,  E. Rosta,  N. J. Russ,  
 H. F. Schaefer III,  N. E. Schultz,  N. Shenvi,  A. C. Simmonett,  A. Sodt,  
 D. Stuck,  K. S. Thanthiriwatte,  V. Vanovschi,  Tao Wang,  A. Warshel,  
 C. F. Williams,  Q. Wu,  X. Xu,  W. Zhang

 Please cite Q-Chem as follows:
 Y. Shao et al., Mol. Phys. 113, 184-215 (2015)
 DOI: 10.1080/00268976.2014.952696

 Q-Chem 5.3.0 for Intel X86 EM64T Linux

 Parts of Q-Chem use Armadillo 9.800.1 (Horizon Scraper).
 http://arma.sourceforge.net/

 Q-Chem begins on Sun Jul 12 20:18:04 2020  

Host: centos77-c2
0

     Scratch files written to /tmp/28905.centos77-h1/qchem121022//
Processing $rem in /opt/qchem-5.3.0-intel2020u1//config/preferences:
Processing $rem in /home/shihchengli/.qchemrc:

Checking the input file for inconsistencies... 	...done.

--------------------------------------------------------------
User input:
--------------------------------------------------------------
$rem
   JOBTYPE  sp
   EXCHANGE   omegaB97X-D
   BASIS   6-311+G(2df,2pd)
   UNRESTRICTED   True
   max_scf_cycles   250
   geom_opt_max_cycles   1500
   basis2 6-31G*
   scf_algorithm rca_diis
   SYM_IGNORE  TRUE
   print_input   true
   geom_opt_dmax   80
   pop_mulliken false
   XC_GRID 000075000302
$end

$molecule
0 2
N       -0.2561132610     -0.0584758640     0.0000000000
O       0.2003200157     -1.1599242460     -0.0000000000
O       -0.9938518337     0.7073926009     -0.0000000000
O       1.0496453607     0.5070794312     -0.0000000000
$end
--------------------------------------------------------------
 ----------------------------------------------------------------
             Standard Nuclear Orientation (Angstroms)
    I     Atom           X                Y                Z
 ----------------------------------------------------------------
    1      N      -0.2561132610    -0.0584758640     0.0000000000
    2      O       0.2003200157    -1.1599242460     0.0000000000
    3      O      -0.9938518337     0.7073926009     0.0000000000
    4      O       1.0496453607     0.5070794312     0.0000000000
 ----------------------------------------------------------------
 Nuclear Repulsion Energy =         123.42336240 hartrees
 There are       16 alpha and       15 beta electrons
 Requested basis set is 6-311+G(2df,2pd)
 There are 32 shells and 136 basis functions

 Total QAlloc Memory Limit   2000 MB
 Mega-Array Size       188 MB
 MEM_STATIC part       192 MB

                       Distance Matrix (Angstroms)
             N (  1)   O (  2)   O (  3)
   O (  2)  1.192275
   O (  3)  1.063397  2.216510
   O (  4)  1.422975  1.870897  2.053292
 
 A cutoff of  1.0D-09 yielded    516 shell pairs
 There are      9521 function pairs (     12583 Cartesian)
 Smallest overlap matrix eigenvalue = 4.31E-04

 Scale SEOQF with 1.000000e-01/1.000000e-01/1.000000e-01

 Standard Electronic Orientation quadrupole field applied
 Nucleus-field energy     =     0.0000000018 hartrees
 Requested basis set is 6-31G(d)
 There are 16 shells and 56 basis functions
 A cutoff of  1.0D-09 yielded    133 shell pairs
 There are      1681 function pairs (      1935 Cartesian)
 Smallest overlap matrix eigenvalue = 2.55E-03
 Guess from superposition of atomic densities
 Warning:  Energy on first SCF cycle will be non-variational
 SAD guess density has 31.000000 electrons
 Long-range K will be added via erf
 Coulomb attenuation parameter = 0.2 bohr**(-1)
 An unrestricted hybrid HF-DFT SCF calculation will be
 performed using Relaxed Constraint Minimization + Pulay DIIS
 Exchange:     0.2220 Hartree-Fock + 1.0000 wB97X-D + LR-HF
 Correlation:  1.0000 wB97X-D
 Using Euler-Maclaurin-Lebedev (75,302) quadrature formula
 Dispersion:   Grimme D
 SCF converges when DIIS error is below 1.0E-04
 using 6 threads for integral computing
 -------------------------------------------------------
 OpenMP Integral computing Module                
 Release: version 1.0, May 2013, Q-Chem Inc. Pittsburgh 
 -------------------------------------------------------
 using 6 threads for integral computing
 -------------------------------------------------------
 OpenMP Integral computing Module                
 Release: version 1.0, May 2013, Q-Chem Inc. Pittsburgh 
 -------------------------------------------------------
 ---------------------------------------
  Cycle       Energy         DIIS Error
 ---------------------------------------
    1    -281.2384982055      1.27E-01
    2    -279.7849333824      2.72E-02
    3    -279.8745236347      6.86E-03
    4    -280.0060697177      7.84E-03
    5    -280.0137993453      9.84E-04 Done RCA. Switching to DIIS
    6    -280.0243925902      8.16E-04
    7    -280.0253273171      5.17E-04
    8    -280.0257721814      2.30E-04
    9    -280.0261253461      8.82E-05 Convergence criterion met
 ---------------------------------------
 <S^2> = 0.7552
 SCF time:  CPU 16.70 s  wall 4.29 s
 SCF   energy in the small basis set = -280.02612535
 Total energy in the small basis set = -280.02612535
 ----------------------------------------------------
  Cycle       Energy    
 ----------------------------------------------------
    1     -28.4789256120     -2.85E+01
 Long-range K will be added via erf
 Coulomb attenuation parameter = 0.2 bohr**(-1)
 An unrestricted hybrid HF-DFT SCF calculation will be
 performed using Relaxed Constraint Minimization + Pulay DIIS
 Exchange:     0.2220 Hartree-Fock + 1.0000 wB97X-D + LR-HF
 Correlation:  1.0000 wB97X-D
 Using Euler-Maclaurin-Lebedev (75,302) quadrature formula
 Dispersion:   Grimme D
 SCF converges when DIIS error is below 1.0E-05
 Basis2 calculation detected. Using small basis as guess for larger.
 SCFMinFind is unable to tell whether the solution found is close.
 Resetting ReadMinima to 0 and attempting to follow guess.
 SCFMinFind following SCF Guess.
 using 6 threads for integral computing
 -------------------------------------------------------
 OpenMP Integral computing Module                
 Release: version 1.0, May 2013, Q-Chem Inc. Pittsburgh 
 -------------------------------------------------------
 using 6 threads for integral computing
 -------------------------------------------------------
 OpenMP Integral computing Module                
 Release: version 1.0, May 2013, Q-Chem Inc. Pittsburgh 
 -------------------------------------------------------
 ---------------------------------------
  Cycle       Energy         DIIS Error
 ---------------------------------------
    1    -280.0997060005      9.98E-03
    2    -280.1130364557      4.70E-03
    3    -280.1251494119      1.12E-03
    4    -280.1416346103      1.03E-03
    5    -280.1423210709      1.45E-04 Done RCA. Switching to DIIS
    6    -280.1432160458      1.12E-04
    7    -280.1432646668      2.46E-05
    8    -280.1432773243      2.38E-05
    9    -280.1432820623      9.50E-06 Convergence criterion met
 ---------------------------------------
 <S^2> = 0.7559
 SCF time:  CPU 42.14 s  wall 8.02 s
 SCF   energy in the final basis set = -280.14328206
 Total energy in the final basis set = -280.14328206
 
 --------------------------------------------------------------
 
                    Orbital Energies (a.u.)
 --------------------------------------------------------------
 
 Alpha MOs
 -- Occupied --
-19.3897 -19.3669 -19.3290 -14.7820  -1.5236  -1.3486  -1.1300  -0.7801
 -0.7676  -0.7328  -0.7081  -0.5772  -0.5078  -0.4523  -0.4398  -0.4203
 -- Virtual --
 -0.0018   0.0791   0.1310   0.1350   0.1447   0.1517   0.2309   0.2464
  0.2535   0.2546   0.2592   0.2681   0.3128   0.3359   0.3462   0.3560
  0.3843   0.4240   0.4415   0.7253   0.7430   0.7491   0.8972   0.9006
  0.9418   0.9879   1.0121   1.0186   1.0476   1.1011   1.1188   1.1281
  1.1600   1.1842   1.1998   1.2877   1.3798   1.4113   1.4646   1.4768
  1.5718   1.5927   1.6388   1.7231   1.8512   1.9011   1.9643   2.0467
  2.0711   2.1978   2.4293   2.4901   2.5538   2.5808   2.7013   2.8257
  3.5516   3.5694   3.6302   3.6395   3.6529   3.6965   3.9982   4.1472
  4.2381   4.2862   4.3522   4.5115   4.6571   4.6671   4.9230   4.9716
  4.9771   4.9877   5.0115   5.0132   5.0290   5.0630   5.0975   5.1120
  5.1149   5.1491   5.1993   5.2826   5.3049   5.3554   5.4112   5.4720
  5.5764   5.6491   5.7354   5.8635   5.9598   6.2261   6.5150   6.6033
  6.6688   6.7223   6.7358   6.7542   6.8263   6.8562   6.9198   6.9742
  7.1222   7.1273   7.2438   7.3399   7.4209   7.4575   7.5379   7.5990
  7.9398   8.1092   8.1966   9.2589  36.3087  49.9869  50.2783  50.7439
 
 Beta MOs
 -- Occupied --
-19.3900 -19.3602 -19.3086 -14.7827  -1.5213  -1.3369  -1.0810  -0.7723
 -0.7676  -0.7113  -0.6996  -0.5135  -0.5027  -0.4239  -0.4144
 -- Virtual --
 -0.0721  -0.0009   0.0798   0.1344   0.1409   0.1514   0.1518   0.2315
  0.2527   0.2545   0.2556   0.2634   0.2697   0.3135   0.3387   0.3461
  0.3582   0.3860   0.4267   0.4455   0.7268   0.7443   0.7488   0.9023
  0.9029   0.9426   0.9936   1.0130   1.0294   1.0570   1.1215   1.1271
  1.1330   1.1673   1.1865   1.2224   1.3018   1.3910   1.4204   1.4706
  1.4817   1.5956   1.6059   1.6572   1.7451   1.8566   1.9075   1.9676
  2.0623   2.0740   2.2238   2.4477   2.4953   2.5548   2.5868   2.7055
  2.8294   3.5519   3.5705   3.6291   3.6413   3.6534   3.7033   4.0050
  4.1484   4.2412   4.2861   4.3545   4.5175   4.6661   4.6697   4.9421
  4.9777   4.9982   5.0141   5.0252   5.0472   5.0626   5.0840   5.1291
  5.1372   5.1483   5.1676   5.2353   5.2944   5.3203   5.3689   5.4366
  5.4814   5.6007   5.6630   5.7437   5.8691   5.9691   6.2501   6.5198
  6.6162   6.6975   6.7393   6.7743   6.7828   6.8648   6.9017   6.9489
  6.9800   7.1417   7.1508   7.2604   7.3573   7.4242   7.4767   7.5547
  7.6431   7.9404   8.1119   8.2038   9.2620  36.3080  50.0087  50.2842
 50.7450
 --------------------------------------------------------------
 
 -----------------------------------------------------------------
                    Cartesian Multipole Moments
 -----------------------------------------------------------------
    Charge (ESU x 10^10)
                -0.0000
    Dipole Moment (Debye)
         X      -1.5118      Y       0.0363      Z       0.0000
       Tot       1.5122
    Quadrupole Moments (Debye-Ang)
        XX     -22.6200     XY      -0.1258     YY     -22.2152
        XZ      -0.0000     YZ       0.0000     ZZ     -19.9634
    Octopole Moments (Debye-Ang^2)
       XXX      -2.2336    XXY      -1.3958    XYY      -0.2078
       YYY       2.3777    XXZ      -0.0000    XYZ      -0.0000
       YYZ       0.0000    XZZ      -1.5428    YZZ      -0.0390
       ZZZ       0.0000
    Hexadecapole Moments (Debye-Ang^3)
      XXXX     -88.8479   XXXY       4.9031   XXYY     -27.8042
      XYYY       4.3452   YYYY     -83.0891   XXXZ      -0.0000
      XXYZ       0.0000   XYYZ      -0.0000   YYYZ       0.0000
      XXZZ     -17.3256   XYZZ       1.1860   YYZZ     -16.3725
      XZZZ      -0.0000   YZZZ       0.0000   ZZZZ     -15.0346
 -----------------------------------------------------------------
Archival summary:
1\1\centos77-c2\SP\ProcedureUnspecified\BasisUnspecified\31(2)\shihchen\SunJul1220:18:182020SunJul1220:18:182020\0\\#,ProcedureUnspecified,BasisUnspecified,\\0,2\N\O,1,1.0634\O,1,1.19228,2,158.581\O,1,1.42298,2,110.51,3,-180,0\\\@

 Total job time:  13.94s(wall), 62.25s(cpu) 
 Sun Jul 12 20:18:18 2020

        *************************************************************
        *                                                           *
        *  Thank you very much for using Q-Chem.  Have a nice day.  *
        *                                                           *
        *************************************************************


