                  Welcome to Q-Chem
     A Quantum Leap Into The Future Of Chemistry


 Q-Chem 5.3 (devel), Q-Chem, Inc., Pleasanton, CA (2020)

 Yihan Shao,  Zhengting Gan,  E. Epifanovsky,  A. T. B. Gilbert,  M. Wormit,  
 J. Kussmann,  A. W. Lange,  A. Behn,  Jia Deng,  Xintian Feng,  D. Ghosh,  
 M. Goldey,  P. R. Horn,  L. D. Jacobson,  I. Kaliman,  T. Kus,  A. Landau,  
 Jie Liu,  E. I. Proynov,  R. M. Richard,  R. P. Steele,  E. J. Sundstrom,  
 H. L. Woodcock III,  P. M. Zimmerman,  D. Zuev,  B. Alam,  B. Albrecht,  
 E. Alguire,  S. A. Baeppler,  D. Barton,  Z. Benda,  Y. A. Bernard,  
 E. J. Berquist,  K. B. Bravaya,  H. Burton,  K. Carter-Fenk,  D. Casanova,  
 Chun-Min Chang,  Yunqing Chen,  A. Chien,  K. D. Closser,  M. P. Coons,  
 S. Coriani,  S. Dasgupta,  A. L. Dempwolff,  M. Diedenhofen,  Hainam Do,  
 R. G. Edgar,  Po-Tung Fang,  S. Faraji,  S. Fatehi,  Qingguo Feng,  
 J. Fosso-Tande,  J. Gayvert,  Qinghui Ge,  A. Ghysels,  G. Gidofalvi,  
 J. Gomes,  J. Gonthier,  A. Gunina,  D. Hait,  M. W. D. Hanson-Heine,  
 P. H. P. Harbach,  A. W. Hauser,  M. F. Herbst,  J. E. Herr,  
 E. G. Hohenstein,  Z. C. Holden,  Kerwin Hui,  B. C. Huynh,  T.-C. Jagau,  
 Hyunjun Ji,  B. Kaduk,  K. Khistyaev,  Jaehoon Kim,  P. Klunzinger,  K. Koh,  
 D. Kosenkov,  L. Koulias,  T. Kowalczyk,  C. M. Krauter,  A. Kunitsa,  
 Ka Un Lao,  A. Laurent,  K. V. Lawler,  Joonho Lee,  D. Lefrancois,  
 S. Lehtola,  D. S. Levine,  Yi-Pei Li,  You-Sheng Lin,  Fenglai Liu,  
 Kuan-Yu Liu,  E. Livshits,  M. Loipersberger,  A. Luenser,  P. Manohar,  
 E. Mansoor,  S. F. Manzer,  Shan-Ping Mao,  Yuezhi Mao,  N. Mardirossian,  
 A. V. Marenich,  T. Markovich,  L. A. Martinez-Martinez,  S. A. Maurer,  
 N. J. Mayhall,  S. C. McKenzie,  J.-M. Mewes,  P. Morgante,  A. F. Morrison,  
 J. W. Mullinax,  K. Nanda,  T. S. Nguyen-Beck,  R. Olivares-Amaya,  
 K. J. Oosterbaan,  J. A. Parkhill,  S. K. Paul,  F. Pavosevic,  Zheng Pei,  
 T. M. Perrine,  F. Plasser,  P. Pokhilko,  S. Prager,  A. Prociuk,  
 E. Ramos,  B. Rana,  D. R. Rehn,  F. Rob,  M. Scheurer,  M. Schneider,  
 N. Sergueev,  S. M. Sharada,  S. Sharma,  D. W. Small,  T. Stauch,  
 C. J. Stein,  T. Stein,  Yu-Chuan Su,  S. P. Veccham,  Zhen Tao,  
 A. J. W. Thom,  A. Tkatchenko,  T. Tsuchimochi,  N. M. Tubman,  L. Vogt,  
 M. L. Vidal,  O. Vydrov,  M. A. Watson,  J. Wenzel,  M. de Wergifosse,  
 T. A. Wesolowski,  A. White,  J. Witte,  A. Yamada,  Jun Yang,  K. Yao,  
 S. Yeganeh,  S. R. Yost,  Zhi-Qiang You,  A. Zech,  Igor Ying Zhang,  
 Xing Zhang,  Yan Zhao,  Ying Zhu,  B. R. Brooks,  G. K. L. Chan,  
 C. J. Cramer,  M. S. Gordon,  W. J. Hehre,  A. Klamt,  M. W. Schmidt,  
 C. D. Sherrill,  D. G. Truhlar,  A. Aspuru-Guzik,  R. Baer,  A. T. Bell,  
 N. A. Besley,  Jeng-Da Chai,  A. E. DePrince, III,  R. A. DiStasio Jr.,  
 A. Dreuw,  B. D. Dunietz,  T. R. Furlani,  Chao-Ping Hsu,  Yousung Jung,  
 Jing Kong,  D. S. Lambrecht,  WanZhen Liang,  C. Ochsenfeld,  
 V. A. Rassolov,  L. V. Slipchenko,  J. E. Subotnik,  T. Van Voorhis,  
 J. M. Herbert,  A. I. Krylov,  P. M. W. Gill,  M. Head-Gordon

 Contributors to earlier versions of Q-Chem not listed above: 
 R. D. Adamson,  B. Austin,  J. Baker,  G. J. O. Beran,  K. Brandhorst,  
 S. T. Brown,  E. F. C. Byrd,  A. K. Chakraborty,  C.-L. Cheng,  
 Siu Hung Chien,  D. M. Chipman,  D. L. Crittenden,  H. Dachsel,  
 R. J. Doerksen,  A. D. Dutoi,  L. Fusti-Molnar,  W. A. Goddard III,  
 A. Golubeva-Zadorozhnaya,  S. R. Gwaltney,  G. Hawkins,  A. Heyden,  
 S. Hirata,  G. Kedziora,  F. J. Keil,  C. Kelley,  Jihan Kim,  R. A. King,  
 R. Z. Khaliullin,  P. P. Korambath,  W. Kurlancheek,  A. M. Lee,  M. S. Lee,  
 S. V. Levchenko,  Ching Yeh Lin,  D. Liotard,  R. C. Lochan,  I. Lotan,  
 P. E. Maslen,  N. Nair,  D. P. O'Neill,  D. Neuhauser,  E. Neuscamman,  
 C. M. Oana,  R. Olson,  B. Peters,  R. Peverati,  P. A. Pieniazek,  
 Y. M. Rhee,  J. Ritchie,  M. A. Rohrdanz,  E. Rosta,  N. J. Russ,  
 H. F. Schaefer III,  N. E. Schultz,  N. Shenvi,  A. C. Simmonett,  A. Sodt,  
 D. Stuck,  K. S. Thanthiriwatte,  V. Vanovschi,  Tao Wang,  A. Warshel,  
 C. F. Williams,  Q. Wu,  X. Xu,  W. Zhang

 Please cite Q-Chem as follows:
 Y. Shao et al., Mol. Phys. 113, 184-215 (2015)
 DOI: 10.1080/00268976.2014.952696

 Q-Chem 5.3.0 for Intel X86 EM64T Linux

 Parts of Q-Chem use Armadillo 9.800.1 (Horizon Scraper).
 http://arma.sourceforge.net/

 Q-Chem begins on Sun Jul 12 20:25:20 2020  

Host: centos77-c2
0

     Scratch files written to /tmp/28905.centos77-h1/qchem122689//
Processing $rem in /opt/qchem-5.3.0-intel2020u1//config/preferences:
Processing $rem in /home/shihchengli/.qchemrc:

Checking the input file for inconsistencies... 	...done.

--------------------------------------------------------------
User input:
--------------------------------------------------------------
$rem
   JOBTYPE  sp
   EXCHANGE   omegaB97X-D
   BASIS   6-311+G(2df,2pd)
   UNRESTRICTED   True
   max_scf_cycles   250
   geom_opt_max_cycles   1500
   basis2 6-31G*
   scf_algorithm rca_diis
   SYM_IGNORE  TRUE
   print_input   true
   geom_opt_dmax   80
   pop_mulliken false
   XC_GRID 000075000302
$end

$molecule
0 2
N       -0.0002461962     -0.0514068086     0.0000000000
O       0.0001839201     -1.2451142705     0.0000000000
O       -1.0263996066     0.6463984638     0.0000000000
O       1.0264621645     0.6461945373     0.0000000000
$end
--------------------------------------------------------------
 ----------------------------------------------------------------
             Standard Nuclear Orientation (Angstroms)
    I     Atom           X                Y                Z
 ----------------------------------------------------------------
    1      N      -0.0002461962    -0.0514068086     0.0000000000
    2      O       0.0001839201    -1.2451142705     0.0000000000
    3      O      -1.0263996066     0.6463984638     0.0000000000
    4      O       1.0264621645     0.6461945373     0.0000000000
 ----------------------------------------------------------------
 Nuclear Repulsion Energy =         120.55220376 hartrees
 There are       16 alpha and       15 beta electrons
 Requested basis set is 6-311+G(2df,2pd)
 There are 32 shells and 136 basis functions

 Total QAlloc Memory Limit   2000 MB
 Mega-Array Size       188 MB
 MEM_STATIC part       192 MB

                       Distance Matrix (Angstroms)
             N (  1)   O (  2)   O (  3)
   O (  2)  1.193708
   O (  3)  1.240936  2.152137
   O (  4)  1.241281  2.151812  2.052862
 
 A cutoff of  1.0D-09 yielded    513 shell pairs
 There are      9519 function pairs (     12579 Cartesian)
 Smallest overlap matrix eigenvalue = 1.07E-03

 Scale SEOQF with 1.000000e-01/1.000000e-01/1.000000e-01

 Standard Electronic Orientation quadrupole field applied
 Nucleus-field energy     =     0.0000000020 hartrees
 Requested basis set is 6-31G(d)
 There are 16 shells and 56 basis functions
 A cutoff of  1.0D-09 yielded    133 shell pairs
 There are      1681 function pairs (      1935 Cartesian)
 Smallest overlap matrix eigenvalue = 5.55E-03
 Guess from superposition of atomic densities
 Warning:  Energy on first SCF cycle will be non-variational
 SAD guess density has 31.000000 electrons
 Long-range K will be added via erf
 Coulomb attenuation parameter = 0.2 bohr**(-1)
 An unrestricted hybrid HF-DFT SCF calculation will be
 performed using Relaxed Constraint Minimization + Pulay DIIS
 Exchange:     0.2220 Hartree-Fock + 1.0000 wB97X-D + LR-HF
 Correlation:  1.0000 wB97X-D
 Using Euler-Maclaurin-Lebedev (75,302) quadrature formula
 Dispersion:   Grimme D
 SCF converges when DIIS error is below 1.0E-04
 using 6 threads for integral computing
 -------------------------------------------------------
 OpenMP Integral computing Module                
 Release: version 1.0, May 2013, Q-Chem Inc. Pittsburgh 
 -------------------------------------------------------
 using 6 threads for integral computing
 -------------------------------------------------------
 OpenMP Integral computing Module                
 Release: version 1.0, May 2013, Q-Chem Inc. Pittsburgh 
 -------------------------------------------------------
 ---------------------------------------
  Cycle       Energy         DIIS Error
 ---------------------------------------
    1    -281.0325203443      1.15E-01
    2    -279.9177478294      2.60E-02
    3    -280.0029812017      3.91E-03
    4    -280.1127163421      3.60E-03
    5    -280.1143153981      6.31E-04 Done RCA. Switching to DIIS
    6    -280.1165193164      6.67E-04
    7    -280.1167302932      1.74E-04
    8    -280.1168218422      1.20E-04
    9    -280.1169000263      3.45E-05 Convergence criterion met
 ---------------------------------------
 <S^2> = 0.7557
 SCF time:  CPU 14.59 s  wall 3.54 s
 SCF   energy in the small basis set = -280.11690003
 Total energy in the small basis set = -280.11690003
 ----------------------------------------------------
  Cycle       Energy    
 ----------------------------------------------------
    1     -28.3657206392     -2.84E+01
 Long-range K will be added via erf
 Coulomb attenuation parameter = 0.2 bohr**(-1)
 An unrestricted hybrid HF-DFT SCF calculation will be
 performed using Relaxed Constraint Minimization + Pulay DIIS
 Exchange:     0.2220 Hartree-Fock + 1.0000 wB97X-D + LR-HF
 Correlation:  1.0000 wB97X-D
 Using Euler-Maclaurin-Lebedev (75,302) quadrature formula
 Dispersion:   Grimme D
 SCF converges when DIIS error is below 1.0E-05
 Basis2 calculation detected. Using small basis as guess for larger.
 SCFMinFind is unable to tell whether the solution found is close.
 Resetting ReadMinima to 0 and attempting to follow guess.
 SCFMinFind following SCF Guess.
 using 6 threads for integral computing
 -------------------------------------------------------
 OpenMP Integral computing Module                
 Release: version 1.0, May 2013, Q-Chem Inc. Pittsburgh 
 -------------------------------------------------------
 using 6 threads for integral computing
 -------------------------------------------------------
 OpenMP Integral computing Module                
 Release: version 1.0, May 2013, Q-Chem Inc. Pittsburgh 
 -------------------------------------------------------
 ---------------------------------------
  Cycle       Energy         DIIS Error
 ---------------------------------------
    1    -280.1846568804      9.93E-03
    2    -280.1887491168      5.09E-03
    3    -280.2017774886      1.65E-03
    4    -280.2208218979      1.30E-03
    5    -280.2227020775      3.08E-04 Done RCA. Switching to DIIS
    6    -280.2250353565      4.36E-04
    7    -280.2254792714      6.98E-05
    8    -280.2255374779      4.35E-05
    9    -280.2256150957      4.78E-05
   10    -280.2256599253      1.30E-05
   11    -280.2256606395      1.89E-06 Convergence criterion met
 ---------------------------------------
 <S^2> = 0.7574
 SCF time:  CPU 50.81 s  wall 9.35 s
 SCF   energy in the final basis set = -280.22566064
 Total energy in the final basis set = -280.22566064
 
 --------------------------------------------------------------
 
                    Orbital Energies (a.u.)
 --------------------------------------------------------------
 
 Alpha MOs
 -- Occupied --
-19.3905 -19.3903 -19.3615 -14.7868  -1.4755  -1.2655  -1.2383  -0.7918
 -0.7381  -0.7162  -0.7066  -0.5518  -0.5153  -0.4905  -0.4833  -0.4617
 -- Virtual --
 -0.0290   0.0863   0.1375   0.1386   0.1576   0.2269   0.2276   0.2394
  0.2594   0.2597   0.2602   0.3274   0.3314   0.3413   0.3484   0.3489
  0.3699   0.4381   0.4408   0.4647   0.7600   0.7915   0.8676   0.8861
  0.9807   0.9882   1.0161   1.0477   1.0589   1.0686   1.0691   1.1075
  1.1115   1.1491   1.1792   1.3432   1.3838   1.4697   1.5113   1.5431
  1.5753   1.5829   1.5831   1.6303   1.7915   1.8404   1.9424   1.9611
  1.9827   2.2470   2.3288   2.4203   2.4509   2.5090   2.7010   2.7685
  3.6240   3.6622   3.6944   3.6962   3.7427   3.9709   4.0095   4.2592
  4.3537   4.3855   4.4211   4.5115   4.5619   4.5944   4.6315   4.9724
  4.9855   4.9943   4.9991   5.0138   5.0196   5.0320   5.0753   5.1027
  5.1115   5.1137   5.1421   5.1427   5.2187   5.2385   5.3383   5.4612
  5.5036   5.6833   5.7971   5.8253   6.1345   6.2651   6.3098   6.5354
  6.5864   6.6635   6.7345   6.7361   6.7785   6.7792   6.8059   6.8304
  7.0378   7.1631   7.1717   7.2213   7.3372   7.3742   7.5401   7.5701
  7.8177   7.8315   8.0033   8.0223  36.1733  50.0510  50.1587  50.2227
 
 Beta MOs
 -- Occupied --
-19.3781 -19.3780 -19.3584 -14.7877  -1.4642  -1.2506  -1.2083  -0.7719
 -0.7355  -0.6944  -0.6846  -0.4754  -0.4724  -0.4675  -0.4672
 -- Virtual --
 -0.1712  -0.0251   0.0863   0.1371   0.1375   0.1572   0.2275   0.2294
  0.2403   0.2590   0.2591   0.2675   0.3286   0.3303   0.3406   0.3479
  0.3483   0.3820   0.4405   0.4455   0.4758   0.7592   0.7933   0.8724
  0.8957   0.9828   0.9898   1.0198   1.0611   1.0677   1.0727   1.0739
  1.1137   1.1145   1.1725   1.1822   1.3515   1.3945   1.4913   1.5263
  1.5511   1.5896   1.5943   1.5963   1.6405   1.8039   1.8505   1.9516
  1.9641   2.0080   2.2509   2.3334   2.4310   2.4584   2.5114   2.7157
  2.7789   3.6220   3.6631   3.6946   3.6979   3.7450   3.9710   4.0207
  4.2649   4.3635   4.3928   4.4265   4.5191   4.5613   4.5968   4.6314
  4.9938   5.0105   5.0294   5.0304   5.0314   5.0490   5.0542   5.1034
  5.1226   5.1232   5.1305   5.1454   5.1725   5.2297   5.2686   5.3569
  5.4688   5.5213   5.6998   5.8053   5.8334   6.1522   6.2976   6.3163
  6.5431   6.6030   6.6726   6.7672   6.7711   6.8073   6.8270   6.8371
  6.8502   7.0725   7.1717   7.1837   7.2297   7.3513   7.4118   7.5623
  7.5828   7.8286   7.8494   8.0108   8.0261  36.1724  50.0625  50.1703
 50.2254
 --------------------------------------------------------------
 
 -----------------------------------------------------------------
                    Cartesian Multipole Moments
 -----------------------------------------------------------------
    Charge (ESU x 10^10)
                 0.0000
    Dipole Moment (Debye)
         X       0.0017      Y       0.1433      Z      -0.0000
       Tot       0.1433
    Quadrupole Moments (Debye-Ang)
        XX     -22.2457     XY       0.0013     YY     -23.0451
        XZ       0.0000     YZ      -0.0000     ZZ     -20.0537
    Octopole Moments (Debye-Ang^2)
       XXX       0.0054    XXY      -0.5909    XYY       0.0014
       YYY       1.5019    XXZ      -0.0000    XYZ       0.0000
       YYZ      -0.0000    XZZ      -0.0008    YZZ      -0.2156
       ZZZ      -0.0000
    Hexadecapole Moments (Debye-Ang^3)
      XXXX     -82.4240   XXXY       0.0065   XXYY     -29.6281
      XYYY       0.0075   YYYY     -93.1955   XXXZ      -0.0000
      XXYZ      -0.0000   XYYZ       0.0000   YYYZ      -0.0000
      XXZZ     -16.7156   XYZZ       0.0015   YYZZ     -18.0570
      XZZZ       0.0000   YZZZ      -0.0000   ZZZZ     -15.0046
 -----------------------------------------------------------------
Archival summary:
1\1\centos77-c2\SP\ProcedureUnspecified\BasisUnspecified\31(2)\shihchen\SunJul1220:25:352020SunJul1220:25:352020\0\\#,ProcedureUnspecified,BasisUnspecified,\\0,2\N\O,1,1.19371\O,1,1.24094,2,124.237\O,1,1.24128,2,124.174,3,-180,0\\\@

 Total job time:  14.97s(wall), 69.70s(cpu) 
 Sun Jul 12 20:25:35 2020

        *************************************************************
        *                                                           *
        *  Thank you very much for using Q-Chem.  Have a nice day.  *
        *                                                           *
        *************************************************************


