                  Welcome to Q-Chem
     A Quantum Leap Into The Future Of Chemistry


 Q-Chem 5.3 (devel), Q-Chem, Inc., Pleasanton, CA (2020)

 Yihan Shao,  Zhengting Gan,  E. Epifanovsky,  A. T. B. Gilbert,  M. Wormit,  
 J. Kussmann,  A. W. Lange,  A. Behn,  Jia Deng,  Xintian Feng,  D. Ghosh,  
 M. Goldey,  P. R. Horn,  L. D. Jacobson,  I. Kaliman,  T. Kus,  A. Landau,  
 Jie Liu,  E. I. Proynov,  R. M. Richard,  R. P. Steele,  E. J. Sundstrom,  
 H. L. Woodcock III,  P. M. Zimmerman,  D. Zuev,  B. Alam,  B. Albrecht,  
 E. Alguire,  S. A. Baeppler,  D. Barton,  Z. Benda,  Y. A. Bernard,  
 E. J. Berquist,  K. B. Bravaya,  H. Burton,  K. Carter-Fenk,  D. Casanova,  
 Chun-Min Chang,  Yunqing Chen,  A. Chien,  K. D. Closser,  M. P. Coons,  
 S. Coriani,  S. Dasgupta,  A. L. Dempwolff,  M. Diedenhofen,  Hainam Do,  
 R. G. Edgar,  Po-Tung Fang,  S. Faraji,  S. Fatehi,  Qingguo Feng,  
 J. Fosso-Tande,  J. Gayvert,  Qinghui Ge,  A. Ghysels,  G. Gidofalvi,  
 J. Gomes,  J. Gonthier,  A. Gunina,  D. Hait,  M. W. D. Hanson-Heine,  
 P. H. P. Harbach,  A. W. Hauser,  M. F. Herbst,  J. E. Herr,  
 E. G. Hohenstein,  Z. C. Holden,  Kerwin Hui,  B. C. Huynh,  T.-C. Jagau,  
 Hyunjun Ji,  B. Kaduk,  K. Khistyaev,  Jaehoon Kim,  P. Klunzinger,  K. Koh,  
 D. Kosenkov,  L. Koulias,  T. Kowalczyk,  C. M. Krauter,  A. Kunitsa,  
 Ka Un Lao,  A. Laurent,  K. V. Lawler,  Joonho Lee,  D. Lefrancois,  
 S. Lehtola,  D. S. Levine,  Yi-Pei Li,  You-Sheng Lin,  Fenglai Liu,  
 Kuan-Yu Liu,  E. Livshits,  M. Loipersberger,  A. Luenser,  P. Manohar,  
 E. Mansoor,  S. F. Manzer,  Shan-Ping Mao,  Yuezhi Mao,  N. Mardirossian,  
 A. V. Marenich,  T. Markovich,  L. A. Martinez-Martinez,  S. A. Maurer,  
 N. J. Mayhall,  S. C. McKenzie,  J.-M. Mewes,  P. Morgante,  A. F. Morrison,  
 J. W. Mullinax,  K. Nanda,  T. S. Nguyen-Beck,  R. Olivares-Amaya,  
 K. J. Oosterbaan,  J. A. Parkhill,  S. K. Paul,  F. Pavosevic,  Zheng Pei,  
 T. M. Perrine,  F. Plasser,  P. Pokhilko,  S. Prager,  A. Prociuk,  
 E. Ramos,  B. Rana,  D. R. Rehn,  F. Rob,  M. Scheurer,  M. Schneider,  
 N. Sergueev,  S. M. Sharada,  S. Sharma,  D. W. Small,  T. Stauch,  
 C. J. Stein,  T. Stein,  Yu-Chuan Su,  S. P. Veccham,  Zhen Tao,  
 A. J. W. Thom,  A. Tkatchenko,  T. Tsuchimochi,  N. M. Tubman,  L. Vogt,  
 M. L. Vidal,  O. Vydrov,  M. A. Watson,  J. Wenzel,  M. de Wergifosse,  
 T. A. Wesolowski,  A. White,  J. Witte,  A. Yamada,  Jun Yang,  K. Yao,  
 S. Yeganeh,  S. R. Yost,  Zhi-Qiang You,  A. Zech,  Igor Ying Zhang,  
 Xing Zhang,  Yan Zhao,  Ying Zhu,  B. R. Brooks,  G. K. L. Chan,  
 C. J. Cramer,  M. S. Gordon,  W. J. Hehre,  A. Klamt,  M. W. Schmidt,  
 C. D. Sherrill,  D. G. Truhlar,  A. Aspuru-Guzik,  R. Baer,  A. T. Bell,  
 N. A. Besley,  Jeng-Da Chai,  A. E. DePrince, III,  R. A. DiStasio Jr.,  
 A. Dreuw,  B. D. Dunietz,  T. R. Furlani,  Chao-Ping Hsu,  Yousung Jung,  
 Jing Kong,  D. S. Lambrecht,  WanZhen Liang,  C. Ochsenfeld,  
 V. A. Rassolov,  L. V. Slipchenko,  J. E. Subotnik,  T. Van Voorhis,  
 J. M. Herbert,  A. I. Krylov,  P. M. W. Gill,  M. Head-Gordon

 Contributors to earlier versions of Q-Chem not listed above: 
 R. D. Adamson,  B. Austin,  J. Baker,  G. J. O. Beran,  K. Brandhorst,  
 S. T. Brown,  E. F. C. Byrd,  A. K. Chakraborty,  C.-L. Cheng,  
 Siu Hung Chien,  D. M. Chipman,  D. L. Crittenden,  H. Dachsel,  
 R. J. Doerksen,  A. D. Dutoi,  L. Fusti-Molnar,  W. A. Goddard III,  
 A. Golubeva-Zadorozhnaya,  S. R. Gwaltney,  G. Hawkins,  A. Heyden,  
 S. Hirata,  G. Kedziora,  F. J. Keil,  C. Kelley,  Jihan Kim,  R. A. King,  
 R. Z. Khaliullin,  P. P. Korambath,  W. Kurlancheek,  A. M. Lee,  M. S. Lee,  
 S. V. Levchenko,  Ching Yeh Lin,  D. Liotard,  R. C. Lochan,  I. Lotan,  
 P. E. Maslen,  N. Nair,  D. P. O'Neill,  D. Neuhauser,  E. Neuscamman,  
 C. M. Oana,  R. Olson,  B. Peters,  R. Peverati,  P. A. Pieniazek,  
 Y. M. Rhee,  J. Ritchie,  M. A. Rohrdanz,  E. Rosta,  N. J. Russ,  
 H. F. Schaefer III,  N. E. Schultz,  N. Shenvi,  A. C. Simmonett,  A. Sodt,  
 D. Stuck,  K. S. Thanthiriwatte,  V. Vanovschi,  Tao Wang,  A. Warshel,  
 C. F. Williams,  Q. Wu,  X. Xu,  W. Zhang

 Please cite Q-Chem as follows:
 Y. Shao et al., Mol. Phys. 113, 184-215 (2015)
 DOI: 10.1080/00268976.2014.952696

 Q-Chem 5.3.0 for Intel X86 EM64T Linux

 Parts of Q-Chem use Armadillo 9.800.1 (Horizon Scraper).
 http://arma.sourceforge.net/

 Q-Chem begins on Sun Jul 12 20:29:32 2020  

Host: centos77-c2
0

     Scratch files written to /tmp/28905.centos77-h1/qchem123625//
Processing $rem in /opt/qchem-5.3.0-intel2020u1//config/preferences:
Processing $rem in /home/shihchengli/.qchemrc:

Checking the input file for inconsistencies... 	...done.

--------------------------------------------------------------
User input:
--------------------------------------------------------------
$rem
   JOBTYPE  sp
   EXCHANGE   omegaB97X-D
   BASIS   6-311+G(2df,2pd)
   UNRESTRICTED   True
   max_scf_cycles   250
   geom_opt_max_cycles   1500
   basis2 6-31G*
   scf_algorithm rca_diis
   SYM_IGNORE  TRUE
   print_input   true
   geom_opt_dmax   80
   pop_mulliken false
   XC_GRID 000075000302
$end

$molecule
0 2
N       -0.0003528911     0.1130248057     0.0000000000
O       0.0001703661     -1.4010664523     -0.0000000000
O       -0.9846301322     0.6420728528     -0.0000000000
O       0.9848129389     0.6420407159     -0.0000000000
$end
--------------------------------------------------------------
 ----------------------------------------------------------------
             Standard Nuclear Orientation (Angstroms)
    I     Atom           X                Y                Z
 ----------------------------------------------------------------
    1      N      -0.0003528911     0.1130248057     0.0000000000
    2      O       0.0001703661    -1.4010664523     0.0000000000
    3      O      -0.9846301322     0.6420728528     0.0000000000
    4      O       0.9848129389     0.6420407159     0.0000000000
 ----------------------------------------------------------------
 Nuclear Repulsion Energy =         119.65346248 hartrees
 There are       16 alpha and       15 beta electrons
 Requested basis set is 6-311+G(2df,2pd)
 There are 32 shells and 136 basis functions

 Total QAlloc Memory Limit   2000 MB
 Mega-Array Size       188 MB
 MEM_STATIC part       192 MB

                       Distance Matrix (Angstroms)
             N (  1)   O (  2)   O (  3)
   O (  2)  1.514091
   O (  3)  1.117450  2.268094
   O (  4)  1.118217  2.267996  1.969443
 
 A cutoff of  1.0D-09 yielded    509 shell pairs
 There are      9417 function pairs (     12463 Cartesian)
 Smallest overlap matrix eigenvalue = 8.98E-04

 Scale SEOQF with 1.000000e-01/1.000000e-01/1.000000e-01

 Standard Electronic Orientation quadrupole field applied
 Nucleus-field energy     =     0.0000000022 hartrees
 Requested basis set is 6-31G(d)
 There are 16 shells and 56 basis functions
 A cutoff of  1.0D-09 yielded    132 shell pairs
 There are      1680 function pairs (      1934 Cartesian)
 Smallest overlap matrix eigenvalue = 4.66E-03
 Guess from superposition of atomic densities
 Warning:  Energy on first SCF cycle will be non-variational
 SAD guess density has 31.000000 electrons
 Long-range K will be added via erf
 Coulomb attenuation parameter = 0.2 bohr**(-1)
 An unrestricted hybrid HF-DFT SCF calculation will be
 performed using Relaxed Constraint Minimization + Pulay DIIS
 Exchange:     0.2220 Hartree-Fock + 1.0000 wB97X-D + LR-HF
 Correlation:  1.0000 wB97X-D
 Using Euler-Maclaurin-Lebedev (75,302) quadrature formula
 Dispersion:   Grimme D
 SCF converges when DIIS error is below 1.0E-04
 using 6 threads for integral computing
 -------------------------------------------------------
 OpenMP Integral computing Module                
 Release: version 1.0, May 2013, Q-Chem Inc. Pittsburgh 
 -------------------------------------------------------
 using 6 threads for integral computing
 -------------------------------------------------------
 OpenMP Integral computing Module                
 Release: version 1.0, May 2013, Q-Chem Inc. Pittsburgh 
 -------------------------------------------------------
 ---------------------------------------
  Cycle       Energy         DIIS Error
 ---------------------------------------
    1    -281.1059176725      1.24E-01
    2    -279.8513947017      2.54E-02
    3    -279.9317355403      6.33E-03
    4    -280.0433677972      7.23E-03
    5    -280.0505014082      1.43E-03
    6    -280.0622233484      1.40E-03
    7    -280.0636705621      1.82E-03
    8    -280.0644027756      5.92E-04 Done RCA. Switching to DIIS
    9    -280.0656716022      8.92E-04
   10    -280.0666464252      2.52E-04
   11    -280.0666647877      8.10E-05 Convergence criterion met
 ---------------------------------------
 <S^2> = 0.7549
 SCF time:  CPU 14.68 s  wall 2.95 s
 SCF   energy in the small basis set = -280.06666479
 Total energy in the small basis set = -280.06666479
 ----------------------------------------------------
  Cycle       Energy    
 ----------------------------------------------------
    1     -28.4372157905     -2.84E+01
 Long-range K will be added via erf
 Coulomb attenuation parameter = 0.2 bohr**(-1)
 An unrestricted hybrid HF-DFT SCF calculation will be
 performed using Relaxed Constraint Minimization + Pulay DIIS
 Exchange:     0.2220 Hartree-Fock + 1.0000 wB97X-D + LR-HF
 Correlation:  1.0000 wB97X-D
 Using Euler-Maclaurin-Lebedev (75,302) quadrature formula
 Dispersion:   Grimme D
 SCF converges when DIIS error is below 1.0E-05
 Basis2 calculation detected. Using small basis as guess for larger.
 SCFMinFind is unable to tell whether the solution found is close.
 Resetting ReadMinima to 0 and attempting to follow guess.
 SCFMinFind following SCF Guess.
 using 6 threads for integral computing
 -------------------------------------------------------
 OpenMP Integral computing Module                
 Release: version 1.0, May 2013, Q-Chem Inc. Pittsburgh 
 -------------------------------------------------------
 using 6 threads for integral computing
 -------------------------------------------------------
 OpenMP Integral computing Module                
 Release: version 1.0, May 2013, Q-Chem Inc. Pittsburgh 
 -------------------------------------------------------
 ---------------------------------------
  Cycle       Energy         DIIS Error
 ---------------------------------------
    1    -280.0942489596      1.07E-02
    2    -280.0186732854      9.84E-03
    3    -280.0696785042      3.67E-03
    4    -280.1263572352      4.34E-03
    5    -280.1450088391      6.08E-04 Done RCA. Switching to DIIS
    6    -280.1775191971      1.03E-03
    7    -280.1777558615      9.23E-04
    8    -280.1777626041      9.22E-04
    9    -280.1762485790      1.46E-03
   10    -280.1806431110      2.24E-04
   11    -280.1813149808      1.57E-04
   12    -280.1816715471      8.30E-05
   13    -280.1818020020      1.94E-05
   14    -280.1818212099      5.94E-06 Convergence criterion met
 ---------------------------------------
 <S^2> = 0.7559
 SCF time:  CPU 66.53 s  wall 13.43 s
 SCF   energy in the final basis set = -280.18182121
 Total energy in the final basis set = -280.18182121
 
 --------------------------------------------------------------
 
                    Orbital Energies (a.u.)
 --------------------------------------------------------------
 
 Alpha MOs
 -- Occupied --
-19.4029 -19.3478 -19.3475 -14.7675  -1.5026  -1.2966  -1.1769  -0.7874
 -0.7478  -0.7213  -0.6855  -0.5644  -0.4916  -0.4914  -0.4754  -0.4473
 -- Virtual --
  0.0052   0.0323   0.1056   0.1374   0.1385   0.1563   0.2428   0.2450
  0.2517   0.2586   0.2613   0.3214   0.3396   0.3400   0.3497   0.3507
  0.4328   0.4360   0.4956   0.5685   0.7412   0.8177   0.8573   0.9211
  0.9489   1.0047   1.0433   1.0667   1.0789   1.0803   1.1002   1.1013
  1.1184   1.1623   1.1800   1.2880   1.4517   1.4671   1.5011   1.5196
  1.5850   1.5932   1.5994   1.6003   1.7625   1.7928   1.9288   1.9368
  2.0124   2.2405   2.3029   2.3296   2.5274   2.5835   2.6681   2.7674
  3.5674   3.6444   3.6486   3.6515   3.8758   3.8924   4.0861   4.1079
  4.3237   4.3697   4.4340   4.5810   4.6366   4.6844   4.6883   4.9703
  4.9745   4.9893   5.0036   5.0046   5.0236   5.0280   5.0391   5.0437
  5.0581   5.1372   5.1615   5.2069   5.2071   5.3407   5.4000   5.4215
  5.4338   5.5516   5.7483   5.8723   5.9820   5.9909   6.3190   6.6745
  6.6995   6.7195   6.7686   6.7784   6.8255   6.8568   6.9317   6.9375
  7.0394   7.0847   7.2011   7.2274   7.2478   7.2552   7.5981   7.6621
  7.7433   7.8809   7.9517   8.3292  36.3896  49.9069  50.2950  50.4318
 
 Beta MOs
 -- Occupied --
-19.3807 -19.3464 -19.3461 -14.7683  -1.5006  -1.2940  -1.1133  -0.7691
 -0.7477  -0.7124  -0.6802  -0.4740  -0.4708  -0.4631  -0.4535
 -- Virtual --
 -0.1392   0.0056   0.0488   0.1071   0.1379   0.1390   0.1562   0.2426
  0.2509   0.2531   0.2587   0.2608   0.3241   0.3388   0.3390   0.3491
  0.3500   0.4349   0.4420   0.4966   0.5752   0.7412   0.8258   0.8590
  0.9216   0.9502   1.0076   1.0439   1.0835   1.0868   1.1004   1.1030
  1.1050   1.1190   1.1832   1.1853   1.2936   1.4720   1.4918   1.5238
  1.5415   1.5915   1.6026   1.6039   1.6097   1.7939   1.7985   1.9401
  1.9408   2.0160   2.2423   2.3204   2.3324   2.5350   2.5849   2.6780
  2.7716   3.5678   3.6434   3.6486   3.6513   3.8765   3.8983   4.0946
  4.1075   4.3229   4.3701   4.4377   4.5837   4.6341   4.6860   4.6996
  4.9990   5.0112   5.0330   5.0345   5.0391   5.0430   5.0614   5.0715
  5.0773   5.1005   5.1618   5.1662   5.2134   5.2216   5.3687   5.4189
  5.4319   5.4387   5.5589   5.7642   5.8798   5.9951   5.9956   6.3398
  6.7115   6.7527   6.7759   6.7891   6.8062   6.8361   6.8686   6.9398
  6.9726   7.0569   7.0894   7.2022   7.2493   7.2505   7.2984   7.6032
  7.6637   7.7637   7.8831   7.9592   8.3300  36.3886  49.9339  50.2963
 50.4330
 --------------------------------------------------------------
 
 -----------------------------------------------------------------
                    Cartesian Multipole Moments
 -----------------------------------------------------------------
    Charge (ESU x 10^10)
                -0.0000
    Dipole Moment (Debye)
         X      -0.0047      Y      -0.1979      Z       0.0000
       Tot       0.1979
    Quadrupole Moments (Debye-Ang)
        XX     -22.7273     XY      -0.0007     YY     -22.3104
        XZ       0.0000     YZ       0.0000     ZZ     -20.0374
    Octopole Moments (Debye-Ang^2)
       XXX      -0.0093    XXY      -1.4755    XYY      -0.0047
       YYY       1.2298    XXZ      -0.0000    XYZ      -0.0000
       YYZ      -0.0000    XZZ      -0.0041    YZZ       1.2549
       ZZZ      -0.0000
    Hexadecapole Moments (Debye-Ang^3)
      XXXX     -79.8847   XXXY       0.0015   XXYY     -29.7138
      XYYY       0.0012   YYYY    -105.3677   XXXZ       0.0000
      XXYZ      -0.0000   XYYZ       0.0000   YYYZ       0.0000
      XXZZ     -15.4173   XYZZ      -0.0006   YYZZ     -20.9604
      XZZZ       0.0000   YZZZ       0.0000   ZZZZ     -15.1570
 -----------------------------------------------------------------
Archival summary:
1\1\centos77-c2\SP\ProcedureUnspecified\BasisUnspecified\31(2)\shihchen\SunJul1220:29:512020SunJul1220:29:512020\0\\#,ProcedureUnspecified,BasisUnspecified,\\0,2\N\O,1,1.11745\O,1,1.11822,2,123.507\O,1,1.51409,2,118.278,3,-180,0\\\@

 Total job time:  18.45s(wall), 85.27s(cpu) 
 Sun Jul 12 20:29:51 2020

        *************************************************************
        *                                                           *
        *  Thank you very much for using Q-Chem.  Have a nice day.  *
        *                                                           *
        *************************************************************


