                  Welcome to Q-Chem
     A Quantum Leap Into The Future Of Chemistry


 Q-Chem 5.3 (devel), Q-Chem, Inc., Pleasanton, CA (2020)

 Yihan Shao,  Zhengting Gan,  E. Epifanovsky,  A. T. B. Gilbert,  M. Wormit,  
 J. Kussmann,  A. W. Lange,  A. Behn,  Jia Deng,  Xintian Feng,  D. Ghosh,  
 M. Goldey,  P. R. Horn,  L. D. Jacobson,  I. Kaliman,  T. Kus,  A. Landau,  
 Jie Liu,  E. I. Proynov,  R. M. Richard,  R. P. Steele,  E. J. Sundstrom,  
 H. L. Woodcock III,  P. M. Zimmerman,  D. Zuev,  B. Alam,  B. Albrecht,  
 E. Alguire,  S. A. Baeppler,  D. Barton,  Z. Benda,  Y. A. Bernard,  
 E. J. Berquist,  K. B. Bravaya,  H. Burton,  K. Carter-Fenk,  D. Casanova,  
 Chun-Min Chang,  Yunqing Chen,  A. Chien,  K. D. Closser,  M. P. Coons,  
 S. Coriani,  S. Dasgupta,  A. L. Dempwolff,  M. Diedenhofen,  Hainam Do,  
 R. G. Edgar,  Po-Tung Fang,  S. Faraji,  S. Fatehi,  Qingguo Feng,  
 J. Fosso-Tande,  J. Gayvert,  Qinghui Ge,  A. Ghysels,  G. Gidofalvi,  
 J. Gomes,  J. Gonthier,  A. Gunina,  D. Hait,  M. W. D. Hanson-Heine,  
 P. H. P. Harbach,  A. W. Hauser,  M. F. Herbst,  J. E. Herr,  
 E. G. Hohenstein,  Z. C. Holden,  Kerwin Hui,  B. C. Huynh,  T.-C. Jagau,  
 Hyunjun Ji,  B. Kaduk,  K. Khistyaev,  Jaehoon Kim,  P. Klunzinger,  K. Koh,  
 D. Kosenkov,  L. Koulias,  T. Kowalczyk,  C. M. Krauter,  A. Kunitsa,  
 Ka Un Lao,  A. Laurent,  K. V. Lawler,  Joonho Lee,  D. Lefrancois,  
 S. Lehtola,  D. S. Levine,  Yi-Pei Li,  You-Sheng Lin,  Fenglai Liu,  
 Kuan-Yu Liu,  E. Livshits,  M. Loipersberger,  A. Luenser,  P. Manohar,  
 E. Mansoor,  S. F. Manzer,  Shan-Ping Mao,  Yuezhi Mao,  N. Mardirossian,  
 A. V. Marenich,  T. Markovich,  L. A. Martinez-Martinez,  S. A. Maurer,  
 N. J. Mayhall,  S. C. McKenzie,  J.-M. Mewes,  P. Morgante,  A. F. Morrison,  
 J. W. Mullinax,  K. Nanda,  T. S. Nguyen-Beck,  R. Olivares-Amaya,  
 K. J. Oosterbaan,  J. A. Parkhill,  S. K. Paul,  F. Pavosevic,  Zheng Pei,  
 T. M. Perrine,  F. Plasser,  P. Pokhilko,  S. Prager,  A. Prociuk,  
 E. Ramos,  B. Rana,  D. R. Rehn,  F. Rob,  M. Scheurer,  M. Schneider,  
 N. Sergueev,  S. M. Sharada,  S. Sharma,  D. W. Small,  T. Stauch,  
 C. J. Stein,  T. Stein,  Yu-Chuan Su,  S. P. Veccham,  Zhen Tao,  
 A. J. W. Thom,  A. Tkatchenko,  T. Tsuchimochi,  N. M. Tubman,  L. Vogt,  
 M. L. Vidal,  O. Vydrov,  M. A. Watson,  J. Wenzel,  M. de Wergifosse,  
 T. A. Wesolowski,  A. White,  J. Witte,  A. Yamada,  Jun Yang,  K. Yao,  
 S. Yeganeh,  S. R. Yost,  Zhi-Qiang You,  A. Zech,  Igor Ying Zhang,  
 Xing Zhang,  Yan Zhao,  Ying Zhu,  B. R. Brooks,  G. K. L. Chan,  
 C. J. Cramer,  M. S. Gordon,  W. J. Hehre,  A. Klamt,  M. W. Schmidt,  
 C. D. Sherrill,  D. G. Truhlar,  A. Aspuru-Guzik,  R. Baer,  A. T. Bell,  
 N. A. Besley,  Jeng-Da Chai,  A. E. DePrince, III,  R. A. DiStasio Jr.,  
 A. Dreuw,  B. D. Dunietz,  T. R. Furlani,  Chao-Ping Hsu,  Yousung Jung,  
 Jing Kong,  D. S. Lambrecht,  WanZhen Liang,  C. Ochsenfeld,  
 V. A. Rassolov,  L. V. Slipchenko,  J. E. Subotnik,  T. Van Voorhis,  
 J. M. Herbert,  A. I. Krylov,  P. M. W. Gill,  M. Head-Gordon

 Contributors to earlier versions of Q-Chem not listed above: 
 R. D. Adamson,  B. Austin,  J. Baker,  G. J. O. Beran,  K. Brandhorst,  
 S. T. Brown,  E. F. C. Byrd,  A. K. Chakraborty,  C.-L. Cheng,  
 Siu Hung Chien,  D. M. Chipman,  D. L. Crittenden,  H. Dachsel,  
 R. J. Doerksen,  A. D. Dutoi,  L. Fusti-Molnar,  W. A. Goddard III,  
 A. Golubeva-Zadorozhnaya,  S. R. Gwaltney,  G. Hawkins,  A. Heyden,  
 S. Hirata,  G. Kedziora,  F. J. Keil,  C. Kelley,  Jihan Kim,  R. A. King,  
 R. Z. Khaliullin,  P. P. Korambath,  W. Kurlancheek,  A. M. Lee,  M. S. Lee,  
 S. V. Levchenko,  Ching Yeh Lin,  D. Liotard,  R. C. Lochan,  I. Lotan,  
 P. E. Maslen,  N. Nair,  D. P. O'Neill,  D. Neuhauser,  E. Neuscamman,  
 C. M. Oana,  R. Olson,  B. Peters,  R. Peverati,  P. A. Pieniazek,  
 Y. M. Rhee,  J. Ritchie,  M. A. Rohrdanz,  E. Rosta,  N. J. Russ,  
 H. F. Schaefer III,  N. E. Schultz,  N. Shenvi,  A. C. Simmonett,  A. Sodt,  
 D. Stuck,  K. S. Thanthiriwatte,  V. Vanovschi,  Tao Wang,  A. Warshel,  
 C. F. Williams,  Q. Wu,  X. Xu,  W. Zhang

 Please cite Q-Chem as follows:
 Y. Shao et al., Mol. Phys. 113, 184-215 (2015)
 DOI: 10.1080/00268976.2014.952696

 Q-Chem 5.3.0 for Intel X86 EM64T Linux

 Parts of Q-Chem use Armadillo 9.800.1 (Horizon Scraper).
 http://arma.sourceforge.net/

 Q-Chem begins on Sun Jul 12 20:25:04 2020  

Host: centos77-c2
0

     Scratch files written to /tmp/28905.centos77-h1/qchem122638//
Processing $rem in /opt/qchem-5.3.0-intel2020u1//config/preferences:
Processing $rem in /home/shihchengli/.qchemrc:

Checking the input file for inconsistencies... 	...done.

--------------------------------------------------------------
User input:
--------------------------------------------------------------
$rem
   JOBTYPE  sp
   EXCHANGE   omegaB97X-D
   BASIS   6-311+G(2df,2pd)
   UNRESTRICTED   True
   max_scf_cycles   250
   geom_opt_max_cycles   1500
   basis2 6-31G*
   scf_algorithm rca_diis
   SYM_IGNORE  TRUE
   print_input   true
   geom_opt_dmax   80
   pop_mulliken false
   XC_GRID 000075000302
$end

$molecule
0 2
N       -0.1026782883     -0.0497546827     0.0000000000
O       -0.0506473549     -1.2423027140     -0.0000000000
O       -0.9527305033     0.5623427905     -0.0000000000
O       1.1060564283     0.7257865282     -0.0000000000
$end
--------------------------------------------------------------
 ----------------------------------------------------------------
             Standard Nuclear Orientation (Angstroms)
    I     Atom           X                Y                Z
 ----------------------------------------------------------------
    1      N      -0.1026782883    -0.0497546827     0.0000000000
    2      O      -0.0506473549    -1.2423027140     0.0000000000
    3      O      -0.9527305033     0.5623427905     0.0000000000
    4      O       1.1060564283     0.7257865282     0.0000000000
 ----------------------------------------------------------------
 Nuclear Repulsion Energy =         121.77071359 hartrees
 There are       16 alpha and       15 beta electrons
 Requested basis set is 6-311+G(2df,2pd)
 There are 32 shells and 136 basis functions

 Total QAlloc Memory Limit   2000 MB
 Mega-Array Size       188 MB
 MEM_STATIC part       192 MB

                       Distance Matrix (Angstroms)
             N (  1)   O (  2)   O (  3)
   O (  2)  1.193683
   O (  3)  1.047498  2.017548
   O (  4)  1.436142  2.282836  2.065265
 
 A cutoff of  1.0D-09 yielded    512 shell pairs
 There are      9473 function pairs (     12527 Cartesian)
 Smallest overlap matrix eigenvalue = 7.11E-04

 Scale SEOQF with 1.000000e-01/1.000000e-01/1.000000e-01

 Standard Electronic Orientation quadrupole field applied
 Nucleus-field energy     =     0.0000000020 hartrees
 Requested basis set is 6-31G(d)
 There are 16 shells and 56 basis functions
 A cutoff of  1.0D-09 yielded    133 shell pairs
 There are      1681 function pairs (      1935 Cartesian)
 Smallest overlap matrix eigenvalue = 4.20E-03
 Guess from superposition of atomic densities
 Warning:  Energy on first SCF cycle will be non-variational
 SAD guess density has 31.000000 electrons
 Long-range K will be added via erf
 Coulomb attenuation parameter = 0.2 bohr**(-1)
 An unrestricted hybrid HF-DFT SCF calculation will be
 performed using Relaxed Constraint Minimization + Pulay DIIS
 Exchange:     0.2220 Hartree-Fock + 1.0000 wB97X-D + LR-HF
 Correlation:  1.0000 wB97X-D
 Using Euler-Maclaurin-Lebedev (75,302) quadrature formula
 Dispersion:   Grimme D
 SCF converges when DIIS error is below 1.0E-04
 using 6 threads for integral computing
 -------------------------------------------------------
 OpenMP Integral computing Module                
 Release: version 1.0, May 2013, Q-Chem Inc. Pittsburgh 
 -------------------------------------------------------
 using 6 threads for integral computing
 -------------------------------------------------------
 OpenMP Integral computing Module                
 Release: version 1.0, May 2013, Q-Chem Inc. Pittsburgh 
 -------------------------------------------------------
 ---------------------------------------
  Cycle       Energy         DIIS Error
 ---------------------------------------
    1    -281.2232690854      1.28E-01
    2    -279.8522372226      2.52E-02
    3    -279.9327243865      5.00E-03
    4    -280.0422083599      4.95E-03
    5    -280.0458966804      9.97E-04 Done RCA. Switching to DIIS
    6    -280.0519803486      6.46E-04
    7    -280.0530726947      7.47E-04
    8    -280.0539278163      2.48E-04
    9    -280.0543302214      6.33E-05 Convergence criterion met
 ---------------------------------------
 <S^2> = 0.7539
 SCF time:  CPU 13.26 s  wall 2.95 s
 SCF   energy in the small basis set = -280.05433022
 Total energy in the small basis set = -280.05433022
 ----------------------------------------------------
  Cycle       Energy    
 ----------------------------------------------------
    1     -28.4744607461     -2.85E+01
 Long-range K will be added via erf
 Coulomb attenuation parameter = 0.2 bohr**(-1)
 An unrestricted hybrid HF-DFT SCF calculation will be
 performed using Relaxed Constraint Minimization + Pulay DIIS
 Exchange:     0.2220 Hartree-Fock + 1.0000 wB97X-D + LR-HF
 Correlation:  1.0000 wB97X-D
 Using Euler-Maclaurin-Lebedev (75,302) quadrature formula
 Dispersion:   Grimme D
 SCF converges when DIIS error is below 1.0E-05
 Basis2 calculation detected. Using small basis as guess for larger.
 SCFMinFind is unable to tell whether the solution found is close.
 Resetting ReadMinima to 0 and attempting to follow guess.
 SCFMinFind following SCF Guess.
 using 6 threads for integral computing
 -------------------------------------------------------
 OpenMP Integral computing Module                
 Release: version 1.0, May 2013, Q-Chem Inc. Pittsburgh 
 -------------------------------------------------------
 using 6 threads for integral computing
 -------------------------------------------------------
 OpenMP Integral computing Module                
 Release: version 1.0, May 2013, Q-Chem Inc. Pittsburgh 
 -------------------------------------------------------
 ---------------------------------------
  Cycle       Energy         DIIS Error
 ---------------------------------------
    1    -280.0915127195      1.06E-02
    2    -280.0278761432      9.41E-03
    3    -280.0722618963      3.64E-03
    4    -280.1228243168      4.02E-03
    5    -280.1397963503      5.08E-04 Done RCA. Switching to DIIS
    6    -280.1694915431      7.07E-04
    7    -280.1700419461      6.09E-04
    8    -280.1705160812      5.95E-04
    9    -280.1715408432      4.57E-04
   10    -280.1719969249      3.31E-04
   11    -280.1722035688      1.89E-04
   12    -280.1722703641      8.64E-05
   13    -280.1722872027      6.44E-06 Convergence criterion met
 ---------------------------------------
 <S^2> = 0.7551
 SCF time:  CPU 54.22 s  wall 10.40 s
 SCF   energy in the final basis set = -280.17228720
 Total energy in the final basis set = -280.17228720
 
 --------------------------------------------------------------
 
                    Orbital Energies (a.u.)
 --------------------------------------------------------------
 
 Alpha MOs
 -- Occupied --
-19.3980 -19.3714 -19.3306 -14.7710  -1.5360  -1.2834  -1.1953  -0.7877
 -0.7657  -0.7338  -0.6933  -0.5652  -0.4946  -0.4911  -0.4707  -0.4472
 -- Virtual --
  0.0095   0.0698   0.1195   0.1374   0.1389   0.1556   0.2399   0.2417
  0.2546   0.2580   0.2609   0.3238   0.3332   0.3430   0.3510   0.3517
  0.4263   0.4402   0.4435   0.6241   0.7461   0.8058   0.8600   0.9296
  0.9354   0.9991   1.0350   1.0448   1.0818   1.0824   1.1041   1.1075
  1.1273   1.1639   1.1856   1.3076   1.3948   1.4846   1.5044   1.5685
  1.5688   1.5729   1.5963   1.6376   1.7608   1.9093   1.9566   1.9711
  2.0128   2.2483   2.2972   2.3675   2.4991   2.6296   2.6719   2.8079
  3.5901   3.6251   3.6403   3.6424   3.8120   3.9559   4.0407   4.1627
  4.2778   4.3343   4.4157   4.4668   4.6243   4.6496   4.8239   4.9628
  4.9682   4.9895   4.9976   5.0093   5.0306   5.0329   5.0532   5.0653
  5.0850   5.1398   5.1482   5.2371   5.2467   5.3359   5.4224   5.4686
  5.5925   5.6340   5.7407   5.8906   5.9886   6.1191   6.4378   6.6696
  6.7143   6.7236   6.7322   6.7909   6.8052   6.8155   6.8525   7.0273
  7.0898   7.1590   7.2593   7.2639   7.3008   7.4159   7.5780   7.6236
  7.7506   7.8658   8.1020   8.5416  36.3724  49.9249  50.2470  50.5398
 
 Beta MOs
 -- Occupied --
-19.3767 -19.3688 -19.3290 -14.7718  -1.5319  -1.2791  -1.1394  -0.7670
 -0.7649  -0.7199  -0.6853  -0.4779  -0.4749  -0.4614  -0.4501
 -- Virtual --
 -0.1398   0.0106   0.0775   0.1273   0.1381   0.1396   0.1555   0.2411
  0.2435   0.2579   0.2580   0.2607   0.3266   0.3325   0.3417   0.3508
  0.3512   0.4296   0.4432   0.4480   0.6309   0.7460   0.8128   0.8626
  0.9336   0.9373   1.0030   1.0356   1.0651   1.0870   1.0883   1.1085
  1.1199   1.1293   1.1860   1.1883   1.3129   1.4117   1.5098   1.5280
  1.5757   1.5777   1.5879   1.6095   1.6466   1.7771   1.9150   1.9604
  1.9818   2.0318   2.2506   2.3162   2.3705   2.5030   2.6332   2.6826
  2.8131   3.5906   3.6254   3.6408   3.6419   3.8133   3.9613   4.0498
  4.1626   4.2772   4.3371   4.4199   4.4689   4.6377   4.6485   4.8289
  4.9829   5.0110   5.0170   5.0390   5.0545   5.0548   5.0726   5.0756
  5.0776   5.1224   5.1485   5.1671   5.2511   5.2555   5.3647   5.4292
  5.4885   5.6013   5.6406   5.7546   5.8964   5.9955   6.1427   6.4588
  6.7011   6.7376   6.7524   6.8008   6.8066   6.8259   6.8357   6.8688
  7.0629   7.1109   7.1615   7.2671   7.2853   7.3415   7.4166   7.5822
  7.6295   7.7588   7.8792   8.1076   8.5449  36.3716  49.9500  50.2486
 50.5420
 --------------------------------------------------------------
 
 -----------------------------------------------------------------
                    Cartesian Multipole Moments
 -----------------------------------------------------------------
    Charge (ESU x 10^10)
                -0.0000
    Dipole Moment (Debye)
         X      -0.2379      Y       0.7250      Z       0.0000
       Tot       0.7631
    Quadrupole Moments (Debye-Ang)
        XX     -21.9093     XY      -0.1653     YY     -23.2169
        XZ       0.0000     YZ       0.0000     ZZ     -19.9577
    Octopole Moments (Debye-Ang^2)
       XXX      -0.3620    XXY      -0.6603    XYY      -0.3827
       YYY       3.1529    XXZ       0.0000    XYZ      -0.0000
       YYZ       0.0000    XZZ      -1.1887    YZZ       0.0541
       ZZZ       0.0000
    Hexadecapole Moments (Debye-Ang^3)
      XXXX     -82.6088   XXXY      -5.9510   XXYY     -30.2520
      XYYY      -5.2798   YYYY     -93.8178   XXXZ       0.0000
      XXYZ       0.0000   XYYZ      -0.0000   YYYZ      -0.0000
      XXZZ     -16.8511   XYZZ      -2.3610   YYZZ     -18.3367
      XZZZ       0.0000   YZZZ      -0.0000   ZZZZ     -15.0475
 -----------------------------------------------------------------
Archival summary:
1\1\centos77-c2\SP\ProcedureUnspecified\BasisUnspecified\31(2)\shihchen\SunJul1220:25:202020SunJul1220:25:202020\0\\#,ProcedureUnspecified,BasisUnspecified,\\0,2\N\O,1,1.0475\O,1,1.19368,2,128.255\O,1,1.43614,2,111.559,3,-180,0\\\@

 Total job time:  15.30s(wall), 71.22s(cpu) 
 Sun Jul 12 20:25:20 2020

        *************************************************************
        *                                                           *
        *  Thank you very much for using Q-Chem.  Have a nice day.  *
        *                                                           *
        *************************************************************


