                  Welcome to Q-Chem
     A Quantum Leap Into The Future Of Chemistry


 Q-Chem 5.3 (devel), Q-Chem, Inc., Pleasanton, CA (2020)

 Yihan Shao,  Zhengting Gan,  E. Epifanovsky,  A. T. B. Gilbert,  M. Wormit,  
 J. Kussmann,  A. W. Lange,  A. Behn,  Jia Deng,  Xintian Feng,  D. Ghosh,  
 M. Goldey,  P. R. Horn,  L. D. Jacobson,  I. Kaliman,  T. Kus,  A. Landau,  
 Jie Liu,  E. I. Proynov,  R. M. Richard,  R. P. Steele,  E. J. Sundstrom,  
 H. L. Woodcock III,  P. M. Zimmerman,  D. Zuev,  B. Alam,  B. Albrecht,  
 E. Alguire,  S. A. Baeppler,  D. Barton,  Z. Benda,  Y. A. Bernard,  
 E. J. Berquist,  K. B. Bravaya,  H. Burton,  K. Carter-Fenk,  D. Casanova,  
 Chun-Min Chang,  Yunqing Chen,  A. Chien,  K. D. Closser,  M. P. Coons,  
 S. Coriani,  S. Dasgupta,  A. L. Dempwolff,  M. Diedenhofen,  Hainam Do,  
 R. G. Edgar,  Po-Tung Fang,  S. Faraji,  S. Fatehi,  Qingguo Feng,  
 J. Fosso-Tande,  J. Gayvert,  Qinghui Ge,  A. Ghysels,  G. Gidofalvi,  
 J. Gomes,  J. Gonthier,  A. Gunina,  D. Hait,  M. W. D. Hanson-Heine,  
 P. H. P. Harbach,  A. W. Hauser,  M. F. Herbst,  J. E. Herr,  
 E. G. Hohenstein,  Z. C. Holden,  Kerwin Hui,  B. C. Huynh,  T.-C. Jagau,  
 Hyunjun Ji,  B. Kaduk,  K. Khistyaev,  Jaehoon Kim,  P. Klunzinger,  K. Koh,  
 D. Kosenkov,  L. Koulias,  T. Kowalczyk,  C. M. Krauter,  A. Kunitsa,  
 Ka Un Lao,  A. Laurent,  K. V. Lawler,  Joonho Lee,  D. Lefrancois,  
 S. Lehtola,  D. S. Levine,  Yi-Pei Li,  You-Sheng Lin,  Fenglai Liu,  
 Kuan-Yu Liu,  E. Livshits,  M. Loipersberger,  A. Luenser,  P. Manohar,  
 E. Mansoor,  S. F. Manzer,  Shan-Ping Mao,  Yuezhi Mao,  N. Mardirossian,  
 A. V. Marenich,  T. Markovich,  L. A. Martinez-Martinez,  S. A. Maurer,  
 N. J. Mayhall,  S. C. McKenzie,  J.-M. Mewes,  P. Morgante,  A. F. Morrison,  
 J. W. Mullinax,  K. Nanda,  T. S. Nguyen-Beck,  R. Olivares-Amaya,  
 K. J. Oosterbaan,  J. A. Parkhill,  S. K. Paul,  F. Pavosevic,  Zheng Pei,  
 T. M. Perrine,  F. Plasser,  P. Pokhilko,  S. Prager,  A. Prociuk,  
 E. Ramos,  B. Rana,  D. R. Rehn,  F. Rob,  M. Scheurer,  M. Schneider,  
 N. Sergueev,  S. M. Sharada,  S. Sharma,  D. W. Small,  T. Stauch,  
 C. J. Stein,  T. Stein,  Yu-Chuan Su,  S. P. Veccham,  Zhen Tao,  
 A. J. W. Thom,  A. Tkatchenko,  T. Tsuchimochi,  N. M. Tubman,  L. Vogt,  
 M. L. Vidal,  O. Vydrov,  M. A. Watson,  J. Wenzel,  M. de Wergifosse,  
 T. A. Wesolowski,  A. White,  J. Witte,  A. Yamada,  Jun Yang,  K. Yao,  
 S. Yeganeh,  S. R. Yost,  Zhi-Qiang You,  A. Zech,  Igor Ying Zhang,  
 Xing Zhang,  Yan Zhao,  Ying Zhu,  B. R. Brooks,  G. K. L. Chan,  
 C. J. Cramer,  M. S. Gordon,  W. J. Hehre,  A. Klamt,  M. W. Schmidt,  
 C. D. Sherrill,  D. G. Truhlar,  A. Aspuru-Guzik,  R. Baer,  A. T. Bell,  
 N. A. Besley,  Jeng-Da Chai,  A. E. DePrince, III,  R. A. DiStasio Jr.,  
 A. Dreuw,  B. D. Dunietz,  T. R. Furlani,  Chao-Ping Hsu,  Yousung Jung,  
 Jing Kong,  D. S. Lambrecht,  WanZhen Liang,  C. Ochsenfeld,  
 V. A. Rassolov,  L. V. Slipchenko,  J. E. Subotnik,  T. Van Voorhis,  
 J. M. Herbert,  A. I. Krylov,  P. M. W. Gill,  M. Head-Gordon

 Contributors to earlier versions of Q-Chem not listed above: 
 R. D. Adamson,  B. Austin,  J. Baker,  G. J. O. Beran,  K. Brandhorst,  
 S. T. Brown,  E. F. C. Byrd,  A. K. Chakraborty,  C.-L. Cheng,  
 Siu Hung Chien,  D. M. Chipman,  D. L. Crittenden,  H. Dachsel,  
 R. J. Doerksen,  A. D. Dutoi,  L. Fusti-Molnar,  W. A. Goddard III,  
 A. Golubeva-Zadorozhnaya,  S. R. Gwaltney,  G. Hawkins,  A. Heyden,  
 S. Hirata,  G. Kedziora,  F. J. Keil,  C. Kelley,  Jihan Kim,  R. A. King,  
 R. Z. Khaliullin,  P. P. Korambath,  W. Kurlancheek,  A. M. Lee,  M. S. Lee,  
 S. V. Levchenko,  Ching Yeh Lin,  D. Liotard,  R. C. Lochan,  I. Lotan,  
 P. E. Maslen,  N. Nair,  D. P. O'Neill,  D. Neuhauser,  E. Neuscamman,  
 C. M. Oana,  R. Olson,  B. Peters,  R. Peverati,  P. A. Pieniazek,  
 Y. M. Rhee,  J. Ritchie,  M. A. Rohrdanz,  E. Rosta,  N. J. Russ,  
 H. F. Schaefer III,  N. E. Schultz,  N. Shenvi,  A. C. Simmonett,  A. Sodt,  
 D. Stuck,  K. S. Thanthiriwatte,  V. Vanovschi,  Tao Wang,  A. Warshel,  
 C. F. Williams,  Q. Wu,  X. Xu,  W. Zhang

 Please cite Q-Chem as follows:
 Y. Shao et al., Mol. Phys. 113, 184-215 (2015)
 DOI: 10.1080/00268976.2014.952696

 Q-Chem 5.3.0 for Intel X86 EM64T Linux

 Parts of Q-Chem use Armadillo 9.800.1 (Horizon Scraper).
 http://arma.sourceforge.net/

 Q-Chem begins on Sun Jul 12 20:18:18 2020  

Host: centos77-c2
0

     Scratch files written to /tmp/28905.centos77-h1/qchem121067//
Processing $rem in /opt/qchem-5.3.0-intel2020u1//config/preferences:
Processing $rem in /home/shihchengli/.qchemrc:

Checking the input file for inconsistencies... 	...done.

--------------------------------------------------------------
User input:
--------------------------------------------------------------
$rem
   JOBTYPE  sp
   EXCHANGE   omegaB97X-D
   BASIS   6-311+G(2df,2pd)
   UNRESTRICTED   True
   max_scf_cycles   250
   geom_opt_max_cycles   1500
   basis2 6-31G*
   scf_algorithm rca_diis
   SYM_IGNORE  TRUE
   print_input   true
   geom_opt_dmax   80
   pop_mulliken false
   XC_GRID 000075000302
$end

$molecule
0 2
N       0.0517623060     -0.0503061234     -0.0000000000
O       -0.0413122777     -1.2406669372     0.0000000000
O       -1.0326163465     0.6230681352     0.0000000000
O       1.0221666000     0.6639768474     0.0000000000
$end
--------------------------------------------------------------
 ----------------------------------------------------------------
             Standard Nuclear Orientation (Angstroms)
    I     Atom           X                Y                Z
 ----------------------------------------------------------------
    1      N       0.0517623060    -0.0503061234     0.0000000000
    2      O      -0.0413122777    -1.2406669372     0.0000000000
    3      O      -1.0326163465     0.6230681352     0.0000000000
    4      O       1.0221666000     0.6639768474     0.0000000000
 ----------------------------------------------------------------
 Nuclear Repulsion Energy =         120.67641684 hartrees
 There are       16 alpha and       15 beta electrons
 Requested basis set is 6-311+G(2df,2pd)
 There are 32 shells and 136 basis functions

 Total QAlloc Memory Limit   2000 MB
 Mega-Array Size       188 MB
 MEM_STATIC part       192 MB

                       Distance Matrix (Angstroms)
             N (  1)   O (  2)   O (  3)
   O (  2)  1.193994
   O (  3)  1.276444  2.110969
   O (  4)  1.204942  2.181434  2.055190
 
 A cutoff of  1.0D-09 yielded    512 shell pairs
 There are      9503 function pairs (     12563 Cartesian)
 Smallest overlap matrix eigenvalue = 1.02E-03

 Scale SEOQF with 1.000000e-01/1.000000e-01/1.000000e-01

 Standard Electronic Orientation quadrupole field applied
 Nucleus-field energy     =     0.0000000020 hartrees
 Requested basis set is 6-31G(d)
 There are 16 shells and 56 basis functions
 A cutoff of  1.0D-09 yielded    133 shell pairs
 There are      1681 function pairs (      1935 Cartesian)
 Smallest overlap matrix eigenvalue = 5.05E-03
 Guess from superposition of atomic densities
 Warning:  Energy on first SCF cycle will be non-variational
 SAD guess density has 31.000000 electrons
 Long-range K will be added via erf
 Coulomb attenuation parameter = 0.2 bohr**(-1)
 An unrestricted hybrid HF-DFT SCF calculation will be
 performed using Relaxed Constraint Minimization + Pulay DIIS
 Exchange:     0.2220 Hartree-Fock + 1.0000 wB97X-D + LR-HF
 Correlation:  1.0000 wB97X-D
 Using Euler-Maclaurin-Lebedev (75,302) quadrature formula
 Dispersion:   Grimme D
 SCF converges when DIIS error is below 1.0E-04
 using 6 threads for integral computing
 -------------------------------------------------------
 OpenMP Integral computing Module                
 Release: version 1.0, May 2013, Q-Chem Inc. Pittsburgh 
 -------------------------------------------------------
 using 6 threads for integral computing
 -------------------------------------------------------
 OpenMP Integral computing Module                
 Release: version 1.0, May 2013, Q-Chem Inc. Pittsburgh 
 -------------------------------------------------------
 ---------------------------------------
  Cycle       Energy         DIIS Error
 ---------------------------------------
    1    -281.0416505856      1.15E-01
    2    -279.9151931952      2.59E-02
    3    -280.0006851682      3.81E-03
    4    -280.1109673954      3.32E-03
    5    -280.1124402406      5.75E-04 Done RCA. Switching to DIIS
    6    -280.1146575341      5.53E-04
    7    -280.1149936673      2.69E-04
    8    -280.1151012649      1.56E-04
    9    -280.1153302201      1.59E-04
   10    -280.1153981373      2.38E-05 Convergence criterion met
 ---------------------------------------
 <S^2> = 0.7549
 SCF time:  CPU 16.43 s  wall 3.50 s
 SCF   energy in the small basis set = -280.11539814
 Total energy in the small basis set = -280.11539814
 ----------------------------------------------------
  Cycle       Energy    
 ----------------------------------------------------
    1     -28.3749166486     -2.84E+01
 Long-range K will be added via erf
 Coulomb attenuation parameter = 0.2 bohr**(-1)
 An unrestricted hybrid HF-DFT SCF calculation will be
 performed using Relaxed Constraint Minimization + Pulay DIIS
 Exchange:     0.2220 Hartree-Fock + 1.0000 wB97X-D + LR-HF
 Correlation:  1.0000 wB97X-D
 Using Euler-Maclaurin-Lebedev (75,302) quadrature formula
 Dispersion:   Grimme D
 SCF converges when DIIS error is below 1.0E-05
 Basis2 calculation detected. Using small basis as guess for larger.
 SCFMinFind is unable to tell whether the solution found is close.
 Resetting ReadMinima to 0 and attempting to follow guess.
 SCFMinFind following SCF Guess.
 using 6 threads for integral computing
 -------------------------------------------------------
 OpenMP Integral computing Module                
 Release: version 1.0, May 2013, Q-Chem Inc. Pittsburgh 
 -------------------------------------------------------
 using 6 threads for integral computing
 -------------------------------------------------------
 OpenMP Integral computing Module                
 Release: version 1.0, May 2013, Q-Chem Inc. Pittsburgh 
 -------------------------------------------------------
 ---------------------------------------
  Cycle       Energy         DIIS Error
 ---------------------------------------
    1    -280.1743428288      1.01E-02
    2    -280.1526136399      6.80E-03
    3    -280.1788194214      2.07E-03
    4    -280.2136206153      1.14E-03
    5    -280.2180902612      9.98E-04 Done RCA. Switching to DIIS
    6    -280.2183399024      1.79E-03
    7    -280.2240484253      1.61E-04
    8    -280.2242824993      9.54E-05
    9    -280.2244796884      3.62E-05
   10    -280.2245069345      6.63E-06 Convergence criterion met
 ---------------------------------------
 <S^2> = 0.7563
 SCF time:  CPU 47.81 s  wall 9.00 s
 SCF   energy in the final basis set = -280.22450693
 Total energy in the final basis set = -280.22450693
 
 --------------------------------------------------------------
 
                    Orbital Energies (a.u.)
 --------------------------------------------------------------
 
 Alpha MOs
 -- Occupied --
-19.4058 -19.3709 -19.3611 -14.7854  -1.4757  -1.2699  -1.2346  -0.7914
 -0.7382  -0.7171  -0.7029  -0.5639  -0.5035  -0.4954  -0.4790  -0.4599
 -- Virtual --
 -0.0259   0.0862   0.1378   0.1385   0.1576   0.2140   0.2338   0.2410
  0.2580   0.2584   0.2602   0.3271   0.3283   0.3327   0.3487   0.3508
  0.3700   0.4369   0.4429   0.4888   0.7600   0.7844   0.8721   0.8900
  0.9697   0.9885   1.0290   1.0371   1.0579   1.0655   1.0686   1.1112
  1.1149   1.1524   1.1804   1.3440   1.3808   1.4675   1.5024   1.5511
  1.5665   1.5794   1.5917   1.6391   1.7574   1.8783   1.9522   1.9614
  1.9858   2.2259   2.3543   2.3905   2.4727   2.5191   2.6810   2.7836
  3.6244   3.6538   3.6955   3.6984   3.7262   3.9884   3.9918   4.2154
  4.3451   4.4213   4.4334   4.5205   4.5359   4.5935   4.6567   4.9716
  4.9763   4.9822   4.9956   5.0211   5.0262   5.0335   5.0717   5.0920
  5.0962   5.1109   5.1652   5.1722   5.1893   5.3020   5.3401   5.4454
  5.5341   5.6580   5.7726   5.8360   6.1674   6.2329   6.2897   6.5179
  6.6204   6.7098   6.7431   6.7765   6.7810   6.8033   6.8176   6.8327
  7.0670   7.1510   7.1580   7.2471   7.3277   7.3605   7.4518   7.5253
  7.8126   7.8347   7.9815   8.1895  36.1840  50.0194  50.2040  50.2273
 
 Beta MOs
 -- Occupied --
-19.3888 -19.3639 -19.3576 -14.7862  -1.4648  -1.2583  -1.1994  -0.7711
 -0.7357  -0.6965  -0.6824  -0.4756  -0.4737  -0.4724  -0.4633
 -- Virtual --
 -0.1651  -0.0225   0.0863   0.1375   0.1377   0.1572   0.2179   0.2339
  0.2426   0.2581   0.2597   0.2655   0.3274   0.3288   0.3331   0.3483
  0.3508   0.3780   0.4387   0.4469   0.5001   0.7593   0.7858   0.8798
  0.8974   0.9719   0.9902   1.0331   1.0588   1.0595   1.0684   1.0745
  1.1129   1.1225   1.1754   1.1831   1.3528   1.3910   1.4918   1.5147
  1.5671   1.5726   1.5952   1.6053   1.6471   1.7652   1.8904   1.9636
  1.9644   2.0110   2.2298   2.3585   2.4037   2.4769   2.5226   2.6960
  2.7921   3.6226   3.6552   3.6974   3.6986   3.7282   3.9919   3.9992
  4.2220   4.3531   4.4303   4.4375   4.5202   4.5428   4.5978   4.6564
  4.9927   5.0067   5.0248   5.0317   5.0345   5.0503   5.0554   5.1010
  5.1072   5.1179   5.1263   5.1735   5.1887   5.2131   5.3233   5.3595
  5.4524   5.5504   5.6731   5.7805   5.8432   6.1933   6.2413   6.3157
  6.5231   6.6422   6.7567   6.7735   6.7980   6.8090   6.8244   6.8386
  6.8674   7.1006   7.1607   7.1692   7.2541   7.3439   7.3957   7.4702
  7.5439   7.8216   7.8463   7.9886   8.1965  36.1832  50.0356  50.2112
 50.2307
 --------------------------------------------------------------
 
 -----------------------------------------------------------------
                    Cartesian Multipole Moments
 -----------------------------------------------------------------
    Charge (ESU x 10^10)
                -0.0000
    Dipole Moment (Debye)
         X      -0.2544      Y       0.1731      Z      -0.0000
       Tot       0.3077
    Quadrupole Moments (Debye-Ang)
        XX     -22.3144     XY      -0.2420     YY     -22.9756
        XZ      -0.0000     YZ      -0.0000     ZZ     -20.0444
    Octopole Moments (Debye-Ang^2)
       XXX      -0.8993    XXY      -0.6484    XYY      -0.2546
       YYY       1.6520    XXZ      -0.0000    XYZ       0.0000
       YYZ       0.0000    XZZ       0.1930    YZZ      -0.1715
       ZZZ      -0.0000
    Hexadecapole Moments (Debye-Ang^3)
      XXXX     -83.1555   XXXY      -1.3802   XXYY     -29.5268
      XYYY      -1.5225   YYYY     -92.4834   XXXZ       0.0000
      XXYZ      -0.0000   XYYZ       0.0000   YYYZ      -0.0000
      XXZZ     -16.7625   XYZZ      -0.3193   YYZZ     -17.9511
      XZZZ      -0.0000   YZZZ       0.0000   ZZZZ     -14.9930
 -----------------------------------------------------------------
Archival summary:
1\1\centos77-c2\SP\ProcedureUnspecified\BasisUnspecified\31(2)\shihchen\SunJul1220:18:322020SunJul1220:18:322020\0\\#,ProcedureUnspecified,BasisUnspecified,\\0,2\N\O,1,1.19399\O,1,1.20494,2,130.826\O,1,1.27644,2,117.368,3,-180,0\\\@

 Total job time:  13.70s(wall), 67.19s(cpu) 
 Sun Jul 12 20:18:32 2020

        *************************************************************
        *                                                           *
        *  Thank you very much for using Q-Chem.  Have a nice day.  *
        *                                                           *
        *************************************************************


