                  Welcome to Q-Chem
     A Quantum Leap Into The Future Of Chemistry


 Q-Chem 5.3 (devel), Q-Chem, Inc., Pleasanton, CA (2020)

 Yihan Shao,  Zhengting Gan,  E. Epifanovsky,  A. T. B. Gilbert,  M. Wormit,  
 J. Kussmann,  A. W. Lange,  A. Behn,  Jia Deng,  Xintian Feng,  D. Ghosh,  
 M. Goldey,  P. R. Horn,  L. D. Jacobson,  I. Kaliman,  T. Kus,  A. Landau,  
 Jie Liu,  E. I. Proynov,  R. M. Richard,  R. P. Steele,  E. J. Sundstrom,  
 H. L. Woodcock III,  P. M. Zimmerman,  D. Zuev,  B. Alam,  B. Albrecht,  
 E. Alguire,  S. A. Baeppler,  D. Barton,  Z. Benda,  Y. A. Bernard,  
 E. J. Berquist,  K. B. Bravaya,  H. Burton,  K. Carter-Fenk,  D. Casanova,  
 Chun-Min Chang,  Yunqing Chen,  A. Chien,  K. D. Closser,  M. P. Coons,  
 S. Coriani,  S. Dasgupta,  A. L. Dempwolff,  M. Diedenhofen,  Hainam Do,  
 R. G. Edgar,  Po-Tung Fang,  S. Faraji,  S. Fatehi,  Qingguo Feng,  
 J. Fosso-Tande,  J. Gayvert,  Qinghui Ge,  A. Ghysels,  G. Gidofalvi,  
 J. Gomes,  J. Gonthier,  A. Gunina,  D. Hait,  M. W. D. Hanson-Heine,  
 P. H. P. Harbach,  A. W. Hauser,  M. F. Herbst,  J. E. Herr,  
 E. G. Hohenstein,  Z. C. Holden,  Kerwin Hui,  B. C. Huynh,  T.-C. Jagau,  
 Hyunjun Ji,  B. Kaduk,  K. Khistyaev,  Jaehoon Kim,  P. Klunzinger,  K. Koh,  
 D. Kosenkov,  L. Koulias,  T. Kowalczyk,  C. M. Krauter,  A. Kunitsa,  
 Ka Un Lao,  A. Laurent,  K. V. Lawler,  Joonho Lee,  D. Lefrancois,  
 S. Lehtola,  D. S. Levine,  Yi-Pei Li,  You-Sheng Lin,  Fenglai Liu,  
 Kuan-Yu Liu,  E. Livshits,  M. Loipersberger,  A. Luenser,  P. Manohar,  
 E. Mansoor,  S. F. Manzer,  Shan-Ping Mao,  Yuezhi Mao,  N. Mardirossian,  
 A. V. Marenich,  T. Markovich,  L. A. Martinez-Martinez,  S. A. Maurer,  
 N. J. Mayhall,  S. C. McKenzie,  J.-M. Mewes,  P. Morgante,  A. F. Morrison,  
 J. W. Mullinax,  K. Nanda,  T. S. Nguyen-Beck,  R. Olivares-Amaya,  
 K. J. Oosterbaan,  J. A. Parkhill,  S. K. Paul,  F. Pavosevic,  Zheng Pei,  
 T. M. Perrine,  F. Plasser,  P. Pokhilko,  S. Prager,  A. Prociuk,  
 E. Ramos,  B. Rana,  D. R. Rehn,  F. Rob,  M. Scheurer,  M. Schneider,  
 N. Sergueev,  S. M. Sharada,  S. Sharma,  D. W. Small,  T. Stauch,  
 C. J. Stein,  T. Stein,  Yu-Chuan Su,  S. P. Veccham,  Zhen Tao,  
 A. J. W. Thom,  A. Tkatchenko,  T. Tsuchimochi,  N. M. Tubman,  L. Vogt,  
 M. L. Vidal,  O. Vydrov,  M. A. Watson,  J. Wenzel,  M. de Wergifosse,  
 T. A. Wesolowski,  A. White,  J. Witte,  A. Yamada,  Jun Yang,  K. Yao,  
 S. Yeganeh,  S. R. Yost,  Zhi-Qiang You,  A. Zech,  Igor Ying Zhang,  
 Xing Zhang,  Yan Zhao,  Ying Zhu,  B. R. Brooks,  G. K. L. Chan,  
 C. J. Cramer,  M. S. Gordon,  W. J. Hehre,  A. Klamt,  M. W. Schmidt,  
 C. D. Sherrill,  D. G. Truhlar,  A. Aspuru-Guzik,  R. Baer,  A. T. Bell,  
 N. A. Besley,  Jeng-Da Chai,  A. E. DePrince, III,  R. A. DiStasio Jr.,  
 A. Dreuw,  B. D. Dunietz,  T. R. Furlani,  Chao-Ping Hsu,  Yousung Jung,  
 Jing Kong,  D. S. Lambrecht,  WanZhen Liang,  C. Ochsenfeld,  
 V. A. Rassolov,  L. V. Slipchenko,  J. E. Subotnik,  T. Van Voorhis,  
 J. M. Herbert,  A. I. Krylov,  P. M. W. Gill,  M. Head-Gordon

 Contributors to earlier versions of Q-Chem not listed above: 
 R. D. Adamson,  B. Austin,  J. Baker,  G. J. O. Beran,  K. Brandhorst,  
 S. T. Brown,  E. F. C. Byrd,  A. K. Chakraborty,  C.-L. Cheng,  
 Siu Hung Chien,  D. M. Chipman,  D. L. Crittenden,  H. Dachsel,  
 R. J. Doerksen,  A. D. Dutoi,  L. Fusti-Molnar,  W. A. Goddard III,  
 A. Golubeva-Zadorozhnaya,  S. R. Gwaltney,  G. Hawkins,  A. Heyden,  
 S. Hirata,  G. Kedziora,  F. J. Keil,  C. Kelley,  Jihan Kim,  R. A. King,  
 R. Z. Khaliullin,  P. P. Korambath,  W. Kurlancheek,  A. M. Lee,  M. S. Lee,  
 S. V. Levchenko,  Ching Yeh Lin,  D. Liotard,  R. C. Lochan,  I. Lotan,  
 P. E. Maslen,  N. Nair,  D. P. O'Neill,  D. Neuhauser,  E. Neuscamman,  
 C. M. Oana,  R. Olson,  B. Peters,  R. Peverati,  P. A. Pieniazek,  
 Y. M. Rhee,  J. Ritchie,  M. A. Rohrdanz,  E. Rosta,  N. J. Russ,  
 H. F. Schaefer III,  N. E. Schultz,  N. Shenvi,  A. C. Simmonett,  A. Sodt,  
 D. Stuck,  K. S. Thanthiriwatte,  V. Vanovschi,  Tao Wang,  A. Warshel,  
 C. F. Williams,  Q. Wu,  X. Xu,  W. Zhang

 Please cite Q-Chem as follows:
 Y. Shao et al., Mol. Phys. 113, 184-215 (2015)
 DOI: 10.1080/00268976.2014.952696

 Q-Chem 5.3.0 for Intel X86 EM64T Linux

 Parts of Q-Chem use Armadillo 9.800.1 (Horizon Scraper).
 http://arma.sourceforge.net/

 Q-Chem begins on Sun Jul 12 20:16:30 2020  

Host: centos77-c2
0

     Scratch files written to /tmp/28905.centos77-h1/qchem120706//
Processing $rem in /opt/qchem-5.3.0-intel2020u1//config/preferences:
Processing $rem in /home/shihchengli/.qchemrc:

Checking the input file for inconsistencies... 	...done.

--------------------------------------------------------------
User input:
--------------------------------------------------------------
$rem
   JOBTYPE  sp
   EXCHANGE   omegaB97X-D
   BASIS   6-311+G(2df,2pd)
   UNRESTRICTED   True
   max_scf_cycles   250
   geom_opt_max_cycles   1500
   basis2 6-31G*
   scf_algorithm rca_diis
   SYM_IGNORE  TRUE
   print_input   true
   geom_opt_dmax   80
   pop_mulliken false
   XC_GRID 000075000302
$end

$molecule
0 2
N       -0.0108966777     0.1701072176     -0.0000000000
O       0.0120278796     -1.0852360682     0.0000000000
O       -1.1384403155     0.4625239746     0.0000000000
O       1.1373093955     0.4486767980     0.0000000000
$end
--------------------------------------------------------------
 ----------------------------------------------------------------
             Standard Nuclear Orientation (Angstroms)
    I     Atom           X                Y                Z
 ----------------------------------------------------------------
    1      N      -0.0108966777     0.1701072176     0.0000000000
    2      O       0.0120278796    -1.0852360682     0.0000000000
    3      O      -1.1384403155     0.4625239746     0.0000000000
    4      O       1.1373093955     0.4486767980     0.0000000000
 ----------------------------------------------------------------
 Nuclear Repulsion Energy =         124.36912495 hartrees
 There are       16 alpha and       15 beta electrons
 Requested basis set is 6-311+G(2df,2pd)
 There are 32 shells and 136 basis functions

 Total QAlloc Memory Limit   2000 MB
 Mega-Array Size       188 MB
 MEM_STATIC part       192 MB

                       Distance Matrix (Angstroms)
             N (  1)   O (  2)   O (  3)
   O (  2)  1.255553
   O (  3)  1.164844  1.928507
   O (  4)  1.181515  1.902406  2.275792
 
 A cutoff of  1.0D-09 yielded    518 shell pairs
 There are      9499 function pairs (     12555 Cartesian)
 Smallest overlap matrix eigenvalue = 6.64E-04

 Scale SEOQF with 1.000000e-01/1.000000e-01/1.000000e-01

 Standard Electronic Orientation quadrupole field applied
 Nucleus-field energy     =     0.0000000017 hartrees
 Requested basis set is 6-31G(d)
 There are 16 shells and 56 basis functions
 A cutoff of  1.0D-09 yielded    133 shell pairs
 There are      1681 function pairs (      1935 Cartesian)
 Smallest overlap matrix eigenvalue = 3.04E-03
 Guess from superposition of atomic densities
 Warning:  Energy on first SCF cycle will be non-variational
 SAD guess density has 31.000000 electrons
 Long-range K will be added via erf
 Coulomb attenuation parameter = 0.2 bohr**(-1)
 An unrestricted hybrid HF-DFT SCF calculation will be
 performed using Relaxed Constraint Minimization + Pulay DIIS
 Exchange:     0.2220 Hartree-Fock + 1.0000 wB97X-D + LR-HF
 Correlation:  1.0000 wB97X-D
 Using Euler-Maclaurin-Lebedev (75,302) quadrature formula
 Dispersion:   Grimme D
 SCF converges when DIIS error is below 1.0E-04
 using 6 threads for integral computing
 -------------------------------------------------------
 OpenMP Integral computing Module                
 Release: version 1.0, May 2013, Q-Chem Inc. Pittsburgh 
 -------------------------------------------------------
 using 6 threads for integral computing
 -------------------------------------------------------
 OpenMP Integral computing Module                
 Release: version 1.0, May 2013, Q-Chem Inc. Pittsburgh 
 -------------------------------------------------------
 ---------------------------------------
  Cycle       Energy         DIIS Error
 ---------------------------------------
    1    -281.2727338500      1.25E-01
    2    -279.8689371935      2.60E-02
    3    -279.9559183447      3.55E-03
    4    -280.0669100041      2.70E-03
    5    -280.0680994060      6.64E-04 Done RCA. Switching to DIIS
    6    -280.0699666034      6.86E-04
    7    -280.0704152314      2.09E-04
    8    -280.0705923979      6.88E-05 Convergence criterion met
 ---------------------------------------
 <S^2> = 0.7540
 SCF time:  CPU 10.05 s  wall 1.79 s
 SCF   energy in the small basis set = -280.07059240
 Total energy in the small basis set = -280.07059240
 ----------------------------------------------------
  Cycle       Energy    
 ----------------------------------------------------
    1     -28.4654981570     -2.85E+01
 Long-range K will be added via erf
 Coulomb attenuation parameter = 0.2 bohr**(-1)
 An unrestricted hybrid HF-DFT SCF calculation will be
 performed using Relaxed Constraint Minimization + Pulay DIIS
 Exchange:     0.2220 Hartree-Fock + 1.0000 wB97X-D + LR-HF
 Correlation:  1.0000 wB97X-D
 Using Euler-Maclaurin-Lebedev (75,302) quadrature formula
 Dispersion:   Grimme D
 SCF converges when DIIS error is below 1.0E-05
 Basis2 calculation detected. Using small basis as guess for larger.
 SCFMinFind is unable to tell whether the solution found is close.
 Resetting ReadMinima to 0 and attempting to follow guess.
 SCFMinFind following SCF Guess.
 using 6 threads for integral computing
 -------------------------------------------------------
 OpenMP Integral computing Module                
 Release: version 1.0, May 2013, Q-Chem Inc. Pittsburgh 
 -------------------------------------------------------
 using 6 threads for integral computing
 -------------------------------------------------------
 OpenMP Integral computing Module                
 Release: version 1.0, May 2013, Q-Chem Inc. Pittsburgh 
 -------------------------------------------------------
 ---------------------------------------
  Cycle       Energy         DIIS Error
 ---------------------------------------
    1    -280.1373971619      9.98E-03
    2    -280.1430299030      5.25E-03
    3    -280.1582143659      1.31E-03
    4    -280.1790538854      1.30E-03
    5    -280.1801422292      2.38E-04 Done RCA. Switching to DIIS
    6    -280.1816989887      2.10E-04
    7    -280.1818387854      8.02E-05
    8    -280.1818832027      2.90E-05
    9    -280.1819045070      1.12E-05
   10    -280.1819063592      2.07E-06 Convergence criterion met
 ---------------------------------------
 <S^2> = 0.7550
 SCF time:  CPU 43.79 s  wall 8.25 s
 SCF   energy in the final basis set = -280.18190636
 Total energy in the final basis set = -280.18190636
 
 --------------------------------------------------------------
 
                    Orbital Energies (a.u.)
 --------------------------------------------------------------
 
 Alpha MOs
 -- Occupied --
-19.3798 -19.3640 -19.3610 -14.7836  -1.5067  -1.3126  -1.2065  -0.7830
 -0.7549  -0.7187  -0.7019  -0.5875  -0.4883  -0.4792  -0.4741  -0.4424
 -- Virtual --
 -0.0137   0.0833   0.1366   0.1395   0.1548   0.2029   0.2341   0.2483
  0.2580   0.2584   0.2617   0.2939   0.3147   0.3390   0.3476   0.3588
  0.3834   0.4295   0.4450   0.6126   0.7380   0.7538   0.9198   0.9301
  0.9572   0.9917   1.0008   1.0141   1.0340   1.0716   1.0794   1.0933
  1.1510   1.1725   1.1804   1.3125   1.3635   1.4271   1.4931   1.5263
  1.5475   1.6156   1.6352   1.6666   1.7906   1.9068   1.9605   2.1028
  2.1269   2.2068   2.4223   2.4909   2.5018   2.5533   2.6369   2.7686
  3.5954   3.6213   3.6339   3.6929   3.7655   3.8540   4.0908   4.2104
  4.2826   4.3838   4.3973   4.4599   4.6176   4.6555   4.7846   4.9659
  4.9753   4.9763   4.9933   5.0225   5.0253   5.0669   5.0893   5.0935
  5.1203   5.1424   5.1780   5.2534   5.3078   5.3428   5.4054   5.4959
  5.5053   5.7397   5.8044   5.8278   6.2685   6.4167   6.4679   6.6704
  6.6811   6.7127   6.7965   6.8084   6.8142   6.8732   6.9105   6.9743
  7.0435   7.1468   7.2810   7.3240   7.3595   7.4220   7.4691   7.5136
  7.6176   7.9664   8.1152   8.8620  36.3304  50.0455  50.2926  50.4176
 
 Beta MOs
 -- Occupied --
-19.3606 -19.3588 -19.3578 -14.7843  -1.4949  -1.3033  -1.1689  -0.7663
 -0.7522  -0.6931  -0.6862  -0.5103  -0.4842  -0.4567  -0.4417
 -- Virtual --
 -0.1191  -0.0108   0.0834   0.1369   0.1398   0.1545   0.2052   0.2335
  0.2508   0.2577   0.2600   0.2621   0.3040   0.3146   0.3413   0.3473
  0.3623   0.3862   0.4314   0.4480   0.6188   0.7392   0.7531   0.9234
  0.9345   0.9599   0.9946   1.0176   1.0258   1.0361   1.0763   1.0866
  1.1033   1.1589   1.1822   1.1961   1.3254   1.3768   1.4366   1.4986
  1.5327   1.5665   1.6332   1.6579   1.6786   1.7951   1.9138   1.9629
  2.1217   2.1310   2.2349   2.4298   2.4976   2.5039   2.5640   2.6429
  2.7745   3.5978   3.6199   3.6356   3.6937   3.7674   3.8634   4.0915
  4.2150   4.2912   4.3844   4.4065   4.4636   4.6260   4.6557   4.7975
  4.9856   4.9907   5.0302   5.0337   5.0370   5.0562   5.0859   5.0999
  5.1294   5.1389   5.1530   5.1920   5.2692   5.3132   5.3677   5.4283
  5.5098   5.5261   5.7460   5.8170   5.8382   6.2790   6.4210   6.4978
  6.7094   6.7306   6.7380   6.8235   6.8252   6.8515   6.8970   6.9382
  6.9852   7.0472   7.1645   7.3175   7.3507   7.3635   7.4244   7.5044
  7.5318   7.6239   7.9773   8.1208   8.8674  36.3298  50.0627  50.2998
 50.4212
 --------------------------------------------------------------
 
 -----------------------------------------------------------------
                    Cartesian Multipole Moments
 -----------------------------------------------------------------
    Charge (ESU x 10^10)
                -0.0000
    Dipole Moment (Debye)
         X      -0.0379      Y       0.1322      Z      -0.0000
       Tot       0.1375
    Quadrupole Moments (Debye-Ang)
        XX     -23.0091     XY       0.0683     YY     -22.1763
        XZ       0.0000     YZ       0.0000     ZZ     -19.8755
    Octopole Moments (Debye-Ang^2)
       XXX      -0.0043    XXY      -1.7716    XYY      -0.0237
       YYY       0.1879    XXZ       0.0000    XYZ      -0.0000
       YYZ      -0.0000    XZZ      -0.0871    YZZ       0.3995
       ZZZ       0.0000
    Hexadecapole Moments (Debye-Ang^3)
      XXXX     -97.8162   XXXY       0.5001   XXYY     -28.6372
      XYYY       0.6491   YYYY     -69.1963   XXXZ       0.0000
      XXYZ       0.0000   XYYZ       0.0000   YYYZ       0.0000
      XXZZ     -18.7525   XYZZ       0.1429   YYZZ     -14.3037
      XZZZ       0.0000   YZZZ       0.0000   ZZZZ     -14.7233
 -----------------------------------------------------------------
Archival summary:
1\1\centos77-c2\SP\ProcedureUnspecified\BasisUnspecified\31(2)\shihchen\SunJul1220:16:422020SunJul1220:16:422020\0\\#,ProcedureUnspecified,BasisUnspecified,\\0,2\N\O,1,1.16484\O,1,1.18152,2,151.824\O,1,1.25555,2,105.585,3,-180,0\\\@

 Total job time:  12.36s(wall), 58.20s(cpu) 
 Sun Jul 12 20:16:42 2020

        *************************************************************
        *                                                           *
        *  Thank you very much for using Q-Chem.  Have a nice day.  *
        *                                                           *
        *************************************************************


