                  Welcome to Q-Chem
     A Quantum Leap Into The Future Of Chemistry


 Q-Chem 5.3 (devel), Q-Chem, Inc., Pleasanton, CA (2020)

 Yihan Shao,  Zhengting Gan,  E. Epifanovsky,  A. T. B. Gilbert,  M. Wormit,  
 J. Kussmann,  A. W. Lange,  A. Behn,  Jia Deng,  Xintian Feng,  D. Ghosh,  
 M. Goldey,  P. R. Horn,  L. D. Jacobson,  I. Kaliman,  T. Kus,  A. Landau,  
 Jie Liu,  E. I. Proynov,  R. M. Richard,  R. P. Steele,  E. J. Sundstrom,  
 H. L. Woodcock III,  P. M. Zimmerman,  D. Zuev,  B. Alam,  B. Albrecht,  
 E. Alguire,  S. A. Baeppler,  D. Barton,  Z. Benda,  Y. A. Bernard,  
 E. J. Berquist,  K. B. Bravaya,  H. Burton,  K. Carter-Fenk,  D. Casanova,  
 Chun-Min Chang,  Yunqing Chen,  A. Chien,  K. D. Closser,  M. P. Coons,  
 S. Coriani,  S. Dasgupta,  A. L. Dempwolff,  M. Diedenhofen,  Hainam Do,  
 R. G. Edgar,  Po-Tung Fang,  S. Faraji,  S. Fatehi,  Qingguo Feng,  
 J. Fosso-Tande,  J. Gayvert,  Qinghui Ge,  A. Ghysels,  G. Gidofalvi,  
 J. Gomes,  J. Gonthier,  A. Gunina,  D. Hait,  M. W. D. Hanson-Heine,  
 P. H. P. Harbach,  A. W. Hauser,  M. F. Herbst,  J. E. Herr,  
 E. G. Hohenstein,  Z. C. Holden,  Kerwin Hui,  B. C. Huynh,  T.-C. Jagau,  
 Hyunjun Ji,  B. Kaduk,  K. Khistyaev,  Jaehoon Kim,  P. Klunzinger,  K. Koh,  
 D. Kosenkov,  L. Koulias,  T. Kowalczyk,  C. M. Krauter,  A. Kunitsa,  
 Ka Un Lao,  A. Laurent,  K. V. Lawler,  Joonho Lee,  D. Lefrancois,  
 S. Lehtola,  D. S. Levine,  Yi-Pei Li,  You-Sheng Lin,  Fenglai Liu,  
 Kuan-Yu Liu,  E. Livshits,  M. Loipersberger,  A. Luenser,  P. Manohar,  
 E. Mansoor,  S. F. Manzer,  Shan-Ping Mao,  Yuezhi Mao,  N. Mardirossian,  
 A. V. Marenich,  T. Markovich,  L. A. Martinez-Martinez,  S. A. Maurer,  
 N. J. Mayhall,  S. C. McKenzie,  J.-M. Mewes,  P. Morgante,  A. F. Morrison,  
 J. W. Mullinax,  K. Nanda,  T. S. Nguyen-Beck,  R. Olivares-Amaya,  
 K. J. Oosterbaan,  J. A. Parkhill,  S. K. Paul,  F. Pavosevic,  Zheng Pei,  
 T. M. Perrine,  F. Plasser,  P. Pokhilko,  S. Prager,  A. Prociuk,  
 E. Ramos,  B. Rana,  D. R. Rehn,  F. Rob,  M. Scheurer,  M. Schneider,  
 N. Sergueev,  S. M. Sharada,  S. Sharma,  D. W. Small,  T. Stauch,  
 C. J. Stein,  T. Stein,  Yu-Chuan Su,  S. P. Veccham,  Zhen Tao,  
 A. J. W. Thom,  A. Tkatchenko,  T. Tsuchimochi,  N. M. Tubman,  L. Vogt,  
 M. L. Vidal,  O. Vydrov,  M. A. Watson,  J. Wenzel,  M. de Wergifosse,  
 T. A. Wesolowski,  A. White,  J. Witte,  A. Yamada,  Jun Yang,  K. Yao,  
 S. Yeganeh,  S. R. Yost,  Zhi-Qiang You,  A. Zech,  Igor Ying Zhang,  
 Xing Zhang,  Yan Zhao,  Ying Zhu,  B. R. Brooks,  G. K. L. Chan,  
 C. J. Cramer,  M. S. Gordon,  W. J. Hehre,  A. Klamt,  M. W. Schmidt,  
 C. D. Sherrill,  D. G. Truhlar,  A. Aspuru-Guzik,  R. Baer,  A. T. Bell,  
 N. A. Besley,  Jeng-Da Chai,  A. E. DePrince, III,  R. A. DiStasio Jr.,  
 A. Dreuw,  B. D. Dunietz,  T. R. Furlani,  Chao-Ping Hsu,  Yousung Jung,  
 Jing Kong,  D. S. Lambrecht,  WanZhen Liang,  C. Ochsenfeld,  
 V. A. Rassolov,  L. V. Slipchenko,  J. E. Subotnik,  T. Van Voorhis,  
 J. M. Herbert,  A. I. Krylov,  P. M. W. Gill,  M. Head-Gordon

 Contributors to earlier versions of Q-Chem not listed above: 
 R. D. Adamson,  B. Austin,  J. Baker,  G. J. O. Beran,  K. Brandhorst,  
 S. T. Brown,  E. F. C. Byrd,  A. K. Chakraborty,  C.-L. Cheng,  
 Siu Hung Chien,  D. M. Chipman,  D. L. Crittenden,  H. Dachsel,  
 R. J. Doerksen,  A. D. Dutoi,  L. Fusti-Molnar,  W. A. Goddard III,  
 A. Golubeva-Zadorozhnaya,  S. R. Gwaltney,  G. Hawkins,  A. Heyden,  
 S. Hirata,  G. Kedziora,  F. J. Keil,  C. Kelley,  Jihan Kim,  R. A. King,  
 R. Z. Khaliullin,  P. P. Korambath,  W. Kurlancheek,  A. M. Lee,  M. S. Lee,  
 S. V. Levchenko,  Ching Yeh Lin,  D. Liotard,  R. C. Lochan,  I. Lotan,  
 P. E. Maslen,  N. Nair,  D. P. O'Neill,  D. Neuhauser,  E. Neuscamman,  
 C. M. Oana,  R. Olson,  B. Peters,  R. Peverati,  P. A. Pieniazek,  
 Y. M. Rhee,  J. Ritchie,  M. A. Rohrdanz,  E. Rosta,  N. J. Russ,  
 H. F. Schaefer III,  N. E. Schultz,  N. Shenvi,  A. C. Simmonett,  A. Sodt,  
 D. Stuck,  K. S. Thanthiriwatte,  V. Vanovschi,  Tao Wang,  A. Warshel,  
 C. F. Williams,  Q. Wu,  X. Xu,  W. Zhang

 Please cite Q-Chem as follows:
 Y. Shao et al., Mol. Phys. 113, 184-215 (2015)
 DOI: 10.1080/00268976.2014.952696

 Q-Chem 5.3.0 for Intel X86 EM64T Linux

 Parts of Q-Chem use Armadillo 9.800.1 (Horizon Scraper).
 http://arma.sourceforge.net/

 Q-Chem begins on Sun Jul 12 20:18:46 2020  

Host: centos77-c2
0

     Scratch files written to /tmp/28905.centos77-h1/qchem121199//
Processing $rem in /opt/qchem-5.3.0-intel2020u1//config/preferences:
Processing $rem in /home/shihchengli/.qchemrc:

Checking the input file for inconsistencies... 	...done.

--------------------------------------------------------------
User input:
--------------------------------------------------------------
$rem
   JOBTYPE  sp
   EXCHANGE   omegaB97X-D
   BASIS   6-311+G(2df,2pd)
   UNRESTRICTED   True
   max_scf_cycles   250
   geom_opt_max_cycles   1500
   basis2 6-31G*
   scf_algorithm rca_diis
   SYM_IGNORE  TRUE
   print_input   true
   geom_opt_dmax   80
   pop_mulliken false
   XC_GRID 000075000302
$end

$molecule
0 2
N       0.1547139121     -0.0484785177     -0.0000000000
O       -0.1236633438     -1.2101568087     0.0000000000
O       -1.0447376531     0.5654959420     0.0000000000
O       1.0136873666     0.6892113064     0.0000000000
$end
--------------------------------------------------------------
 ----------------------------------------------------------------
             Standard Nuclear Orientation (Angstroms)
    I     Atom           X                Y                Z
 ----------------------------------------------------------------
    1      N       0.1547139121    -0.0484785177     0.0000000000
    2      O      -0.1236633438    -1.2101568087     0.0000000000
    3      O      -1.0447376531     0.5654959420     0.0000000000
    4      O       1.0136873666     0.6892113064     0.0000000000
 ----------------------------------------------------------------
 Nuclear Repulsion Energy =         121.62403472 hartrees
 There are       16 alpha and       15 beta electrons
 Requested basis set is 6-311+G(2df,2pd)
 There are 32 shells and 136 basis functions

 Total QAlloc Memory Limit   2000 MB
 Mega-Array Size       188 MB
 MEM_STATIC part       192 MB

                       Distance Matrix (Angstroms)
             N (  1)   O (  2)   O (  3)
   O (  2)  1.194567
   O (  3)  1.347460  2.000330
   O (  4)  1.132264  2.213858  2.062139
 
 A cutoff of  1.0D-09 yielded    514 shell pairs
 There are      9513 function pairs (     12575 Cartesian)
 Smallest overlap matrix eigenvalue = 7.33E-04

 Scale SEOQF with 1.000000e-01/1.000000e-01/1.000000e-01

 Standard Electronic Orientation quadrupole field applied
 Nucleus-field energy     =     0.0000000019 hartrees
 Requested basis set is 6-31G(d)
 There are 16 shells and 56 basis functions
 A cutoff of  1.0D-09 yielded    133 shell pairs
 There are      1681 function pairs (      1935 Cartesian)
 Smallest overlap matrix eigenvalue = 3.53E-03
 Guess from superposition of atomic densities
 Warning:  Energy on first SCF cycle will be non-variational
 SAD guess density has 31.000000 electrons
 Long-range K will be added via erf
 Coulomb attenuation parameter = 0.2 bohr**(-1)
 An unrestricted hybrid HF-DFT SCF calculation will be
 performed using Relaxed Constraint Minimization + Pulay DIIS
 Exchange:     0.2220 Hartree-Fock + 1.0000 wB97X-D + LR-HF
 Correlation:  1.0000 wB97X-D
 Using Euler-Maclaurin-Lebedev (75,302) quadrature formula
 Dispersion:   Grimme D
 SCF converges when DIIS error is below 1.0E-04
 using 6 threads for integral computing
 -------------------------------------------------------
 OpenMP Integral computing Module                
 Release: version 1.0, May 2013, Q-Chem Inc. Pittsburgh 
 -------------------------------------------------------
 using 6 threads for integral computing
 -------------------------------------------------------
 OpenMP Integral computing Module                
 Release: version 1.0, May 2013, Q-Chem Inc. Pittsburgh 
 -------------------------------------------------------
 ---------------------------------------
  Cycle       Energy         DIIS Error
 ---------------------------------------
    1    -281.1102335872      1.19E-01
    2    -279.8859496375      2.60E-02
    3    -279.9727127085      4.27E-03
    4    -280.0867801357      4.06E-03
    5    -280.0891498038      8.54E-04 Done RCA. Switching to DIIS
    6    -280.0931306399      6.68E-04
    7    -280.0938500087      3.58E-04
    8    -280.0942046156      1.90E-04
    9    -280.0942859140      8.19E-05 Convergence criterion met
 ---------------------------------------
 <S^2> = 0.7544
 SCF time:  CPU 18.89 s  wall 4.67 s
 SCF   energy in the small basis set = -280.09428591
 Total energy in the small basis set = -280.09428591
 ----------------------------------------------------
  Cycle       Energy    
 ----------------------------------------------------
    1     -28.4185476435     -2.84E+01
 Long-range K will be added via erf
 Coulomb attenuation parameter = 0.2 bohr**(-1)
 An unrestricted hybrid HF-DFT SCF calculation will be
 performed using Relaxed Constraint Minimization + Pulay DIIS
 Exchange:     0.2220 Hartree-Fock + 1.0000 wB97X-D + LR-HF
 Correlation:  1.0000 wB97X-D
 Using Euler-Maclaurin-Lebedev (75,302) quadrature formula
 Dispersion:   Grimme D
 SCF converges when DIIS error is below 1.0E-05
 Basis2 calculation detected. Using small basis as guess for larger.
 SCFMinFind is unable to tell whether the solution found is close.
 Resetting ReadMinima to 0 and attempting to follow guess.
 SCFMinFind following SCF Guess.
 using 6 threads for integral computing
 -------------------------------------------------------
 OpenMP Integral computing Module                
 Release: version 1.0, May 2013, Q-Chem Inc. Pittsburgh 
 -------------------------------------------------------
 using 6 threads for integral computing
 -------------------------------------------------------
 OpenMP Integral computing Module                
 Release: version 1.0, May 2013, Q-Chem Inc. Pittsburgh 
 -------------------------------------------------------
 ---------------------------------------
  Cycle       Energy         DIIS Error
 ---------------------------------------
    1    -280.1564743167      1.01E-02
    2    -280.1559363975      5.83E-03
    3    -280.1739734614      1.75E-03
    4    -280.1996327357      1.51E-03
    5    -280.2018886985      2.71E-04 Done RCA. Switching to DIIS
    6    -280.2051967512      2.94E-04
    7    -280.2055054758      1.09E-04
    8    -280.2056108724      3.23E-05
    9    -280.2056528703      2.50E-05
   10    -280.2056601009      1.03E-05
   11    -280.2056617335      3.33E-06 Convergence criterion met
 ---------------------------------------
 <S^2> = 0.7553
 SCF time:  CPU 50.25 s  wall 9.75 s
 SCF   energy in the final basis set = -280.20566173
 Total energy in the final basis set = -280.20566173
 
 --------------------------------------------------------------
 
                    Orbital Energies (a.u.)
 --------------------------------------------------------------
 
 Alpha MOs
 -- Occupied --
-19.3855 -19.3667 -19.3618 -14.7818  -1.4857  -1.3077  -1.1932  -0.7829
 -0.7445  -0.7217  -0.6975  -0.5757  -0.4909  -0.4780  -0.4778  -0.4553
 -- Virtual --
 -0.0133   0.0848   0.1363   0.1396   0.1564   0.1807   0.2340   0.2478
  0.2514   0.2579   0.2608   0.2895   0.3205   0.3331   0.3487   0.3536
  0.3744   0.4300   0.4445   0.6088   0.7531   0.7576   0.8839   0.9197
  0.9332   0.9948   1.0100   1.0389   1.0437   1.0786   1.0870   1.0971
  1.1407   1.1732   1.1821   1.3355   1.3547   1.4631   1.4940   1.5239
  1.5730   1.6045   1.6101   1.6278   1.7447   1.9052   1.9622   2.0114
  2.0821   2.1494   2.3578   2.4515   2.4901   2.5450   2.6551   2.8098
  3.6154   3.6169   3.6504   3.6858   3.6935   3.8575   4.0926   4.0951
  4.3109   4.3692   4.4022   4.4712   4.6074   4.6889   4.7527   4.9664
  4.9772   4.9842   4.9910   5.0210   5.0249   5.0395   5.0764   5.0857
  5.1019   5.1147   5.1324   5.2364   5.3123   5.3738   5.3843   5.4681
  5.5644   5.6296   5.6649   5.8570   5.9940   6.2242   6.5257   6.5843
  6.6980   6.7072   6.7475   6.7516   6.8031   6.8291   6.9276   7.0810
  7.0986   7.1310   7.2314   7.2915   7.3163   7.3261   7.3385   7.4463
  7.6627   7.9291   8.0090   8.7426  36.2449  49.9638  50.2534  50.3998
 
 Beta MOs
 -- Occupied --
-19.3655 -19.3654 -19.3566 -14.7825  -1.4787  -1.2991  -1.1469  -0.7667
 -0.7431  -0.7008  -0.6863  -0.4939  -0.4849  -0.4557  -0.4516
 -- Virtual --
 -0.1279  -0.0114   0.0853   0.1372   0.1402   0.1562   0.1903   0.2340
  0.2513   0.2576   0.2576   0.2612   0.2912   0.3204   0.3354   0.3483
  0.3542   0.3767   0.4317   0.4483   0.6151   0.7541   0.7571   0.8937
  0.9240   0.9353   0.9975   1.0324   1.0397   1.0477   1.0836   1.0946
  1.1043   1.1457   1.1841   1.1980   1.3459   1.3653   1.4726   1.5120
  1.5382   1.5929   1.6102   1.6270   1.6433   1.7492   1.9125   1.9653
  2.0278   2.1099   2.1527   2.3727   2.4540   2.4938   2.5526   2.6625
  2.8147   3.6152   3.6189   3.6507   3.6875   3.6938   3.8657   4.0929
  4.1016   4.3141   4.3695   4.4079   4.4782   4.6192   4.6881   4.7608
  4.9856   4.9960   5.0256   5.0276   5.0421   5.0571   5.0750   5.0937
  5.1128   5.1207   5.1320   5.1551   5.2530   5.3351   5.3890   5.3916
  5.4838   5.5830   5.6364   5.6751   5.8627   6.0048   6.2568   6.5306
  6.6036   6.7324   6.7580   6.7699   6.7886   6.8315   6.8552   6.9538
  7.0844   7.1080   7.1503   7.2736   7.3155   7.3189   7.3407   7.3490
  7.4698   7.6674   7.9358   8.0181   8.7470  36.2442  49.9852  50.2589
 50.4013
 --------------------------------------------------------------
 
 -----------------------------------------------------------------
                    Cartesian Multipole Moments
 -----------------------------------------------------------------
    Charge (ESU x 10^10)
                -0.0000
    Dipole Moment (Debye)
         X       0.2790      Y       0.1986      Z       0.0000
       Tot       0.3425
    Quadrupole Moments (Debye-Ang)
        XX     -22.5403     XY      -0.2530     YY     -22.6141
        XZ       0.0000     YZ       0.0000     ZZ     -19.9960
    Octopole Moments (Debye-Ang^2)
       XXX      -0.1956    XXY      -0.9566    XYY      -0.2439
       YYY       2.1499    XXZ      -0.0000    XYZ       0.0000
       YYZ       0.0000    XZZ       0.7837    YZZ      -0.0443
       ZZZ      -0.0000
    Hexadecapole Moments (Debye-Ang^3)
      XXXX     -86.2454   XXXY      -3.6180   XXYY     -28.8270
      XYYY      -3.4835   YYYY     -88.3401   XXXZ       0.0000
      XXYZ       0.0000   XYYZ       0.0000   YYYZ       0.0000
      XXZZ     -17.0185   XYZZ      -0.8666   YYZZ     -17.2784
      XZZZ       0.0000   YZZZ       0.0000   ZZZZ     -14.9492
 -----------------------------------------------------------------
Archival summary:
1\1\centos77-c2\SP\ProcedureUnspecified\BasisUnspecified\31(2)\shihchen\SunJul1220:19:022020SunJul1220:19:022020\0\\#,ProcedureUnspecified,BasisUnspecified,\\0,2\N\O,1,1.13226\O,1,1.19457,2,144.132\O,1,1.34746,2,112.237,3,-180,0\\\@

 Total job time:  15.74s(wall), 72.66s(cpu) 
 Sun Jul 12 20:19:02 2020

        *************************************************************
        *                                                           *
        *  Thank you very much for using Q-Chem.  Have a nice day.  *
        *                                                           *
        *************************************************************


