                  Welcome to Q-Chem
     A Quantum Leap Into The Future Of Chemistry


 Q-Chem 5.3 (devel), Q-Chem, Inc., Pleasanton, CA (2020)

 Yihan Shao,  Zhengting Gan,  E. Epifanovsky,  A. T. B. Gilbert,  M. Wormit,  
 J. Kussmann,  A. W. Lange,  A. Behn,  Jia Deng,  Xintian Feng,  D. Ghosh,  
 M. Goldey,  P. R. Horn,  L. D. Jacobson,  I. Kaliman,  T. Kus,  A. Landau,  
 Jie Liu,  E. I. Proynov,  R. M. Richard,  R. P. Steele,  E. J. Sundstrom,  
 H. L. Woodcock III,  P. M. Zimmerman,  D. Zuev,  B. Alam,  B. Albrecht,  
 E. Alguire,  S. A. Baeppler,  D. Barton,  Z. Benda,  Y. A. Bernard,  
 E. J. Berquist,  K. B. Bravaya,  H. Burton,  K. Carter-Fenk,  D. Casanova,  
 Chun-Min Chang,  Yunqing Chen,  A. Chien,  K. D. Closser,  M. P. Coons,  
 S. Coriani,  S. Dasgupta,  A. L. Dempwolff,  M. Diedenhofen,  Hainam Do,  
 R. G. Edgar,  Po-Tung Fang,  S. Faraji,  S. Fatehi,  Qingguo Feng,  
 J. Fosso-Tande,  J. Gayvert,  Qinghui Ge,  A. Ghysels,  G. Gidofalvi,  
 J. Gomes,  J. Gonthier,  A. Gunina,  D. Hait,  M. W. D. Hanson-Heine,  
 P. H. P. Harbach,  A. W. Hauser,  M. F. Herbst,  J. E. Herr,  
 E. G. Hohenstein,  Z. C. Holden,  Kerwin Hui,  B. C. Huynh,  T.-C. Jagau,  
 Hyunjun Ji,  B. Kaduk,  K. Khistyaev,  Jaehoon Kim,  P. Klunzinger,  K. Koh,  
 D. Kosenkov,  L. Koulias,  T. Kowalczyk,  C. M. Krauter,  A. Kunitsa,  
 Ka Un Lao,  A. Laurent,  K. V. Lawler,  Joonho Lee,  D. Lefrancois,  
 S. Lehtola,  D. S. Levine,  Yi-Pei Li,  You-Sheng Lin,  Fenglai Liu,  
 Kuan-Yu Liu,  E. Livshits,  M. Loipersberger,  A. Luenser,  P. Manohar,  
 E. Mansoor,  S. F. Manzer,  Shan-Ping Mao,  Yuezhi Mao,  N. Mardirossian,  
 A. V. Marenich,  T. Markovich,  L. A. Martinez-Martinez,  S. A. Maurer,  
 N. J. Mayhall,  S. C. McKenzie,  J.-M. Mewes,  P. Morgante,  A. F. Morrison,  
 J. W. Mullinax,  K. Nanda,  T. S. Nguyen-Beck,  R. Olivares-Amaya,  
 K. J. Oosterbaan,  J. A. Parkhill,  S. K. Paul,  F. Pavosevic,  Zheng Pei,  
 T. M. Perrine,  F. Plasser,  P. Pokhilko,  S. Prager,  A. Prociuk,  
 E. Ramos,  B. Rana,  D. R. Rehn,  F. Rob,  M. Scheurer,  M. Schneider,  
 N. Sergueev,  S. M. Sharada,  S. Sharma,  D. W. Small,  T. Stauch,  
 C. J. Stein,  T. Stein,  Yu-Chuan Su,  S. P. Veccham,  Zhen Tao,  
 A. J. W. Thom,  A. Tkatchenko,  T. Tsuchimochi,  N. M. Tubman,  L. Vogt,  
 M. L. Vidal,  O. Vydrov,  M. A. Watson,  J. Wenzel,  M. de Wergifosse,  
 T. A. Wesolowski,  A. White,  J. Witte,  A. Yamada,  Jun Yang,  K. Yao,  
 S. Yeganeh,  S. R. Yost,  Zhi-Qiang You,  A. Zech,  Igor Ying Zhang,  
 Xing Zhang,  Yan Zhao,  Ying Zhu,  B. R. Brooks,  G. K. L. Chan,  
 C. J. Cramer,  M. S. Gordon,  W. J. Hehre,  A. Klamt,  M. W. Schmidt,  
 C. D. Sherrill,  D. G. Truhlar,  A. Aspuru-Guzik,  R. Baer,  A. T. Bell,  
 N. A. Besley,  Jeng-Da Chai,  A. E. DePrince, III,  R. A. DiStasio Jr.,  
 A. Dreuw,  B. D. Dunietz,  T. R. Furlani,  Chao-Ping Hsu,  Yousung Jung,  
 Jing Kong,  D. S. Lambrecht,  WanZhen Liang,  C. Ochsenfeld,  
 V. A. Rassolov,  L. V. Slipchenko,  J. E. Subotnik,  T. Van Voorhis,  
 J. M. Herbert,  A. I. Krylov,  P. M. W. Gill,  M. Head-Gordon

 Contributors to earlier versions of Q-Chem not listed above: 
 R. D. Adamson,  B. Austin,  J. Baker,  G. J. O. Beran,  K. Brandhorst,  
 S. T. Brown,  E. F. C. Byrd,  A. K. Chakraborty,  C.-L. Cheng,  
 Siu Hung Chien,  D. M. Chipman,  D. L. Crittenden,  H. Dachsel,  
 R. J. Doerksen,  A. D. Dutoi,  L. Fusti-Molnar,  W. A. Goddard III,  
 A. Golubeva-Zadorozhnaya,  S. R. Gwaltney,  G. Hawkins,  A. Heyden,  
 S. Hirata,  G. Kedziora,  F. J. Keil,  C. Kelley,  Jihan Kim,  R. A. King,  
 R. Z. Khaliullin,  P. P. Korambath,  W. Kurlancheek,  A. M. Lee,  M. S. Lee,  
 S. V. Levchenko,  Ching Yeh Lin,  D. Liotard,  R. C. Lochan,  I. Lotan,  
 P. E. Maslen,  N. Nair,  D. P. O'Neill,  D. Neuhauser,  E. Neuscamman,  
 C. M. Oana,  R. Olson,  B. Peters,  R. Peverati,  P. A. Pieniazek,  
 Y. M. Rhee,  J. Ritchie,  M. A. Rohrdanz,  E. Rosta,  N. J. Russ,  
 H. F. Schaefer III,  N. E. Schultz,  N. Shenvi,  A. C. Simmonett,  A. Sodt,  
 D. Stuck,  K. S. Thanthiriwatte,  V. Vanovschi,  Tao Wang,  A. Warshel,  
 C. F. Williams,  Q. Wu,  X. Xu,  W. Zhang

 Please cite Q-Chem as follows:
 Y. Shao et al., Mol. Phys. 113, 184-215 (2015)
 DOI: 10.1080/00268976.2014.952696

 Q-Chem 5.3.0 for Intel X86 EM64T Linux

 Parts of Q-Chem use Armadillo 9.800.1 (Horizon Scraper).
 http://arma.sourceforge.net/

 Q-Chem begins on Sun Jul 12 20:23:11 2020  

Host: centos77-c2
0

     Scratch files written to /tmp/28905.centos77-h1/qchem122210//
Processing $rem in /opt/qchem-5.3.0-intel2020u1//config/preferences:
Processing $rem in /home/shihchengli/.qchemrc:

Checking the input file for inconsistencies... 	...done.

--------------------------------------------------------------
User input:
--------------------------------------------------------------
$rem
   JOBTYPE  sp
   EXCHANGE   omegaB97X-D
   BASIS   6-311+G(2df,2pd)
   UNRESTRICTED   True
   max_scf_cycles   250
   geom_opt_max_cycles   1500
   basis2 6-31G*
   scf_algorithm rca_diis
   SYM_IGNORE  TRUE
   print_input   true
   geom_opt_dmax   80
   pop_mulliken false
   XC_GRID 000075000302
$end

$molecule
0 2
N       0.0253724743     -0.0512005019     -0.0000000000
O       0.0129167506     -1.2448493032     0.0000000000
O       -1.0456292340     0.6666012405     0.0000000000
O       1.0073402909     0.6255204866     0.0000000000
$end
--------------------------------------------------------------
 ----------------------------------------------------------------
             Standard Nuclear Orientation (Angstroms)
    I     Atom           X                Y                Z
 ----------------------------------------------------------------
    1      N       0.0253724743    -0.0512005019     0.0000000000
    2      O       0.0129167506    -1.2448493032     0.0000000000
    3      O      -1.0456292340     0.6666012405     0.0000000000
    4      O       1.0073402909     0.6255204866     0.0000000000
 ----------------------------------------------------------------
 Nuclear Repulsion Energy =         120.63988663 hartrees
 There are       16 alpha and       15 beta electrons
 Requested basis set is 6-311+G(2df,2pd)
 There are 32 shells and 136 basis functions

 Total QAlloc Memory Limit   2000 MB
 Mega-Array Size       188 MB
 MEM_STATIC part       192 MB

                       Distance Matrix (Angstroms)
             N (  1)   O (  2)   O (  3)
   O (  2)  1.193714
   O (  3)  1.289296  2.184986
   O (  4)  1.192565  2.118292  2.053381
 
 A cutoff of  1.0D-09 yielded    512 shell pairs
 There are      9503 function pairs (     12563 Cartesian)
 Smallest overlap matrix eigenvalue = 1.06E-03

 Scale SEOQF with 1.000000e-01/1.000000e-01/1.000000e-01

 Standard Electronic Orientation quadrupole field applied
 Nucleus-field energy     =     0.0000000020 hartrees
 Requested basis set is 6-31G(d)
 There are 16 shells and 56 basis functions
 A cutoff of  1.0D-09 yielded    133 shell pairs
 There are      1681 function pairs (      1935 Cartesian)
 Smallest overlap matrix eigenvalue = 5.52E-03
 Guess from superposition of atomic densities
 Warning:  Energy on first SCF cycle will be non-variational
 SAD guess density has 31.000000 electrons
 Long-range K will be added via erf
 Coulomb attenuation parameter = 0.2 bohr**(-1)
 An unrestricted hybrid HF-DFT SCF calculation will be
 performed using Relaxed Constraint Minimization + Pulay DIIS
 Exchange:     0.2220 Hartree-Fock + 1.0000 wB97X-D + LR-HF
 Correlation:  1.0000 wB97X-D
 Using Euler-Maclaurin-Lebedev (75,302) quadrature formula
 Dispersion:   Grimme D
 SCF converges when DIIS error is below 1.0E-04
 using 6 threads for integral computing
 -------------------------------------------------------
 OpenMP Integral computing Module                
 Release: version 1.0, May 2013, Q-Chem Inc. Pittsburgh 
 -------------------------------------------------------
 using 6 threads for integral computing
 -------------------------------------------------------
 OpenMP Integral computing Module                
 Release: version 1.0, May 2013, Q-Chem Inc. Pittsburgh 
 -------------------------------------------------------
 ---------------------------------------
  Cycle       Energy         DIIS Error
 ---------------------------------------
    1    -281.0456578069      1.16E-01
    2    -279.9142909332      2.59E-02
    3    -279.9991900763      4.04E-03
    4    -280.1088015745      3.85E-03
    5    -280.1106691561      7.73E-04 Done RCA. Switching to DIIS
    6    -280.1134010869      7.66E-04
    7    -280.1137608429      3.55E-04
    8    -280.1138322806      2.39E-04
    9    -280.1140761568      1.72E-04
   10    -280.1141714187      3.92E-05 Convergence criterion met
 ---------------------------------------
 <S^2> = 0.7554
 SCF time:  CPU 15.63 s  wall 3.68 s
 SCF   energy in the small basis set = -280.11417142
 Total energy in the small basis set = -280.11417142
 ----------------------------------------------------
  Cycle       Energy    
 ----------------------------------------------------
    1     -28.3748340644     -2.84E+01
 Long-range K will be added via erf
 Coulomb attenuation parameter = 0.2 bohr**(-1)
 An unrestricted hybrid HF-DFT SCF calculation will be
 performed using Relaxed Constraint Minimization + Pulay DIIS
 Exchange:     0.2220 Hartree-Fock + 1.0000 wB97X-D + LR-HF
 Correlation:  1.0000 wB97X-D
 Using Euler-Maclaurin-Lebedev (75,302) quadrature formula
 Dispersion:   Grimme D
 SCF converges when DIIS error is below 1.0E-05
 Basis2 calculation detected. Using small basis as guess for larger.
 SCFMinFind is unable to tell whether the solution found is close.
 Resetting ReadMinima to 0 and attempting to follow guess.
 SCFMinFind following SCF Guess.
 using 6 threads for integral computing
 -------------------------------------------------------
 OpenMP Integral computing Module                
 Release: version 1.0, May 2013, Q-Chem Inc. Pittsburgh 
 -------------------------------------------------------
 using 6 threads for integral computing
 -------------------------------------------------------
 OpenMP Integral computing Module                
 Release: version 1.0, May 2013, Q-Chem Inc. Pittsburgh 
 -------------------------------------------------------
 ---------------------------------------
  Cycle       Energy         DIIS Error
 ---------------------------------------
    1    -280.1750899005      1.01E-02
    2    -280.1579141958      6.52E-03
    3    -280.1812670543      2.09E-03
    4    -280.2129749180      1.11E-03
    5    -280.2172928259      9.96E-04 Done RCA. Switching to DIIS
    6    -280.2168883798      1.85E-03
    7    -280.2229824316      1.50E-04
    8    -280.2232131740      9.26E-05
    9    -280.2234194406      4.31E-05
   10    -280.2234595106      1.24E-05
   11    -280.2234611894      6.89E-06 Convergence criterion met
 ---------------------------------------
 <S^2> = 0.7569
 SCF time:  CPU 51.92 s  wall 9.38 s
 SCF   energy in the final basis set = -280.22346119
 Total energy in the final basis set = -280.22346119
 
 --------------------------------------------------------------
 
                    Orbital Energies (a.u.)
 --------------------------------------------------------------
 
 Alpha MOs
 -- Occupied --
-19.4023 -19.3777 -19.3580 -14.7850  -1.4780  -1.2676  -1.2357  -0.7916
 -0.7390  -0.7181  -0.7028  -0.5573  -0.5107  -0.4944  -0.4797  -0.4593
 -- Virtual --
 -0.0254   0.0857   0.1374   0.1385   0.1575   0.2023   0.2374   0.2400
  0.2578   0.2586   0.2604   0.3266   0.3321   0.3416   0.3487   0.3487
  0.3850   0.4369   0.4416   0.4774   0.7592   0.7949   0.8580   0.8957
  0.9733   0.9886   1.0258   1.0470   1.0591   1.0687   1.0696   1.1083
  1.1130   1.1495   1.1798   1.3413   1.3843   1.4703   1.5086   1.5472
  1.5750   1.5817   1.5841   1.6310   1.7860   1.8496   1.9458   1.9608
  1.9843   2.2472   2.3327   2.3860   2.4841   2.5133   2.6968   2.7752
  3.6219   3.6590   3.6855   3.6921   3.7535   3.9868   4.0102   4.1976
  4.3801   4.4104   4.4296   4.5219   4.5236   4.5956   4.6532   4.9721
  4.9806   4.9927   4.9944   5.0182   5.0190   5.0339   5.0691   5.0897
  5.1112   5.1160   5.1585   5.1587   5.1795   5.2855   5.3405   5.4503
  5.5201   5.6779   5.7807   5.8463   6.1030   6.2338   6.3033   6.6001
  6.6163   6.6966   6.7405   6.7470   6.7763   6.7817   6.8116   6.8321
  7.0360   7.1491   7.1784   7.2281   7.3037   7.3607   7.5475   7.5740
  7.8276   7.8418   7.9694   8.0874  36.1915  50.0164  50.2006  50.2334
 
 Beta MOs
 -- Occupied --
-19.3865 -19.3690 -19.3551 -14.7859  -1.4673  -1.2555  -1.2012  -0.7712
 -0.7365  -0.6968  -0.6828  -0.4752  -0.4725  -0.4713  -0.4636
 -- Virtual --
 -0.1684  -0.0219   0.0860   0.1371   0.1377   0.1572   0.2085   0.2369
  0.2413   0.2583   0.2598   0.2637   0.3279   0.3311   0.3407   0.3483
  0.3483   0.3947   0.4398   0.4460   0.4882   0.7585   0.7966   0.8648
  0.9035   0.9756   0.9904   1.0294   1.0611   1.0675   1.0737   1.0743
  1.1137   1.1163   1.1728   1.1828   1.3492   1.3958   1.4929   1.5255
  1.5541   1.5890   1.5949   1.5954   1.6408   1.7996   1.8584   1.9548
  1.9639   2.0094   2.2509   2.3372   2.3989   2.4893   2.5164   2.7116
  2.7848   3.6203   3.6601   3.6870   3.6923   3.7557   3.9869   4.0210
  4.2046   4.3874   4.4176   4.4358   4.5214   4.5305   4.5990   4.6527
  4.9949   5.0077   5.0307   5.0310   5.0319   5.0480   5.0562   5.1022
  5.1023   5.1287   5.1300   5.1656   5.1806   5.2011   5.3064   5.3604
  5.4601   5.5347   5.6928   5.7904   5.8536   6.1250   6.2418   6.3318
  6.6064   6.6349   6.7195   6.7697   6.7737   6.8073   6.8273   6.8393
  6.8500   7.0712   7.1631   7.1854   7.2357   7.3207   7.3998   7.5663
  7.5859   7.8373   7.8566   7.9779   8.0927  36.1907  50.0316  50.2077
 50.2375
 --------------------------------------------------------------
 
 -----------------------------------------------------------------
                    Cartesian Multipole Moments
 -----------------------------------------------------------------
    Charge (ESU x 10^10)
                -0.0000
    Dipole Moment (Debye)
         X      -0.1532      Y       0.2111      Z      -0.0000
       Tot       0.2609
    Quadrupole Moments (Debye-Ang)
        XX     -22.2100     XY      -0.0878     YY     -23.0621
        XZ       0.0000     YZ       0.0000     ZZ     -20.0440
    Octopole Moments (Debye-Ang^2)
       XXX      -0.4354    XXY      -0.5823    XYY      -0.0389
       YYY       1.6920    XXZ       0.0000    XYZ       0.0000
       YYZ       0.0000    XZZ       0.2814    YZZ      -0.1832
       ZZZ       0.0000
    Hexadecapole Moments (Debye-Ang^3)
      XXXX     -82.3648   XXXY       1.2857   XXYY     -29.6635
      XYYY       1.0015   YYYY     -93.2357   XXXZ      -0.0000
      XXYZ       0.0000   XYYZ       0.0000   YYYZ       0.0000
      XXZZ     -16.7107   XYZZ       0.5777   YYZZ     -18.0772
      XZZZ       0.0000   YZZZ      -0.0000   ZZZZ     -15.0011
 -----------------------------------------------------------------
Archival summary:
1\1\centos77-c2\SP\ProcedureUnspecified\BasisUnspecified\31(2)\shihchen\SunJul1220:23:262020SunJul1220:23:262020\0\\#,ProcedureUnspecified,BasisUnspecified,\\0,2\N\O,1,1.19257\O,1,1.19371,2,125.17\O,1,1.2893,2,111.597,3,-180,0\\\@

 Total job time:  14.80s(wall), 71.49s(cpu) 
 Sun Jul 12 20:23:26 2020

        *************************************************************
        *                                                           *
        *  Thank you very much for using Q-Chem.  Have a nice day.  *
        *                                                           *
        *************************************************************


