                  Welcome to Q-Chem
     A Quantum Leap Into The Future Of Chemistry


 Q-Chem 5.3 (devel), Q-Chem, Inc., Pleasanton, CA (2020)

 Yihan Shao,  Zhengting Gan,  E. Epifanovsky,  A. T. B. Gilbert,  M. Wormit,  
 J. Kussmann,  A. W. Lange,  A. Behn,  Jia Deng,  Xintian Feng,  D. Ghosh,  
 M. Goldey,  P. R. Horn,  L. D. Jacobson,  I. Kaliman,  T. Kus,  A. Landau,  
 Jie Liu,  E. I. Proynov,  R. M. Richard,  R. P. Steele,  E. J. Sundstrom,  
 H. L. Woodcock III,  P. M. Zimmerman,  D. Zuev,  B. Alam,  B. Albrecht,  
 E. Alguire,  S. A. Baeppler,  D. Barton,  Z. Benda,  Y. A. Bernard,  
 E. J. Berquist,  K. B. Bravaya,  H. Burton,  K. Carter-Fenk,  D. Casanova,  
 Chun-Min Chang,  Yunqing Chen,  A. Chien,  K. D. Closser,  M. P. Coons,  
 S. Coriani,  S. Dasgupta,  A. L. Dempwolff,  M. Diedenhofen,  Hainam Do,  
 R. G. Edgar,  Po-Tung Fang,  S. Faraji,  S. Fatehi,  Qingguo Feng,  
 J. Fosso-Tande,  J. Gayvert,  Qinghui Ge,  A. Ghysels,  G. Gidofalvi,  
 J. Gomes,  J. Gonthier,  A. Gunina,  D. Hait,  M. W. D. Hanson-Heine,  
 P. H. P. Harbach,  A. W. Hauser,  M. F. Herbst,  J. E. Herr,  
 E. G. Hohenstein,  Z. C. Holden,  Kerwin Hui,  B. C. Huynh,  T.-C. Jagau,  
 Hyunjun Ji,  B. Kaduk,  K. Khistyaev,  Jaehoon Kim,  P. Klunzinger,  K. Koh,  
 D. Kosenkov,  L. Koulias,  T. Kowalczyk,  C. M. Krauter,  A. Kunitsa,  
 Ka Un Lao,  A. Laurent,  K. V. Lawler,  Joonho Lee,  D. Lefrancois,  
 S. Lehtola,  D. S. Levine,  Yi-Pei Li,  You-Sheng Lin,  Fenglai Liu,  
 Kuan-Yu Liu,  E. Livshits,  M. Loipersberger,  A. Luenser,  P. Manohar,  
 E. Mansoor,  S. F. Manzer,  Shan-Ping Mao,  Yuezhi Mao,  N. Mardirossian,  
 A. V. Marenich,  T. Markovich,  L. A. Martinez-Martinez,  S. A. Maurer,  
 N. J. Mayhall,  S. C. McKenzie,  J.-M. Mewes,  P. Morgante,  A. F. Morrison,  
 J. W. Mullinax,  K. Nanda,  T. S. Nguyen-Beck,  R. Olivares-Amaya,  
 K. J. Oosterbaan,  J. A. Parkhill,  S. K. Paul,  F. Pavosevic,  Zheng Pei,  
 T. M. Perrine,  F. Plasser,  P. Pokhilko,  S. Prager,  A. Prociuk,  
 E. Ramos,  B. Rana,  D. R. Rehn,  F. Rob,  M. Scheurer,  M. Schneider,  
 N. Sergueev,  S. M. Sharada,  S. Sharma,  D. W. Small,  T. Stauch,  
 C. J. Stein,  T. Stein,  Yu-Chuan Su,  S. P. Veccham,  Zhen Tao,  
 A. J. W. Thom,  A. Tkatchenko,  T. Tsuchimochi,  N. M. Tubman,  L. Vogt,  
 M. L. Vidal,  O. Vydrov,  M. A. Watson,  J. Wenzel,  M. de Wergifosse,  
 T. A. Wesolowski,  A. White,  J. Witte,  A. Yamada,  Jun Yang,  K. Yao,  
 S. Yeganeh,  S. R. Yost,  Zhi-Qiang You,  A. Zech,  Igor Ying Zhang,  
 Xing Zhang,  Yan Zhao,  Ying Zhu,  B. R. Brooks,  G. K. L. Chan,  
 C. J. Cramer,  M. S. Gordon,  W. J. Hehre,  A. Klamt,  M. W. Schmidt,  
 C. D. Sherrill,  D. G. Truhlar,  A. Aspuru-Guzik,  R. Baer,  A. T. Bell,  
 N. A. Besley,  Jeng-Da Chai,  A. E. DePrince, III,  R. A. DiStasio Jr.,  
 A. Dreuw,  B. D. Dunietz,  T. R. Furlani,  Chao-Ping Hsu,  Yousung Jung,  
 Jing Kong,  D. S. Lambrecht,  WanZhen Liang,  C. Ochsenfeld,  
 V. A. Rassolov,  L. V. Slipchenko,  J. E. Subotnik,  T. Van Voorhis,  
 J. M. Herbert,  A. I. Krylov,  P. M. W. Gill,  M. Head-Gordon

 Contributors to earlier versions of Q-Chem not listed above: 
 R. D. Adamson,  B. Austin,  J. Baker,  G. J. O. Beran,  K. Brandhorst,  
 S. T. Brown,  E. F. C. Byrd,  A. K. Chakraborty,  C.-L. Cheng,  
 Siu Hung Chien,  D. M. Chipman,  D. L. Crittenden,  H. Dachsel,  
 R. J. Doerksen,  A. D. Dutoi,  L. Fusti-Molnar,  W. A. Goddard III,  
 A. Golubeva-Zadorozhnaya,  S. R. Gwaltney,  G. Hawkins,  A. Heyden,  
 S. Hirata,  G. Kedziora,  F. J. Keil,  C. Kelley,  Jihan Kim,  R. A. King,  
 R. Z. Khaliullin,  P. P. Korambath,  W. Kurlancheek,  A. M. Lee,  M. S. Lee,  
 S. V. Levchenko,  Ching Yeh Lin,  D. Liotard,  R. C. Lochan,  I. Lotan,  
 P. E. Maslen,  N. Nair,  D. P. O'Neill,  D. Neuhauser,  E. Neuscamman,  
 C. M. Oana,  R. Olson,  B. Peters,  R. Peverati,  P. A. Pieniazek,  
 Y. M. Rhee,  J. Ritchie,  M. A. Rohrdanz,  E. Rosta,  N. J. Russ,  
 H. F. Schaefer III,  N. E. Schultz,  N. Shenvi,  A. C. Simmonett,  A. Sodt,  
 D. Stuck,  K. S. Thanthiriwatte,  V. Vanovschi,  Tao Wang,  A. Warshel,  
 C. F. Williams,  Q. Wu,  X. Xu,  W. Zhang

 Please cite Q-Chem as follows:
 Y. Shao et al., Mol. Phys. 113, 184-215 (2015)
 DOI: 10.1080/00268976.2014.952696

 Q-Chem 5.3.0 for Intel X86 EM64T Linux

 Parts of Q-Chem use Armadillo 9.800.1 (Horizon Scraper).
 http://arma.sourceforge.net/

 Q-Chem begins on Sun Jul 12 20:15:20 2020  

Host: centos77-c2
0

     Scratch files written to /tmp/28905.centos77-h1/qchem120332//
Processing $rem in /opt/qchem-5.3.0-intel2020u1//config/preferences:
Processing $rem in /home/shihchengli/.qchemrc:

Checking the input file for inconsistencies... 	...done.

--------------------------------------------------------------
User input:
--------------------------------------------------------------
$rem
   JOBTYPE  sp
   EXCHANGE   omegaB97X-D
   BASIS   6-311+G(2df,2pd)
   UNRESTRICTED   True
   max_scf_cycles   250
   geom_opt_max_cycles   1500
   basis2 6-31G*
   scf_algorithm rca_diis
   SYM_IGNORE  TRUE
   print_input   true
   geom_opt_dmax   80
   pop_mulliken false
   XC_GRID 000075000302
$end

$molecule
0 2
N       -0.0021304070     -0.0153140751     -0.0000000000
O       0.0017453514     -1.2193228844     0.0000000000
O       -1.0555675073     0.6162546024     0.0000000000
O       1.0559528447     0.6144542791     0.0000000000
$end
--------------------------------------------------------------
 ----------------------------------------------------------------
             Standard Nuclear Orientation (Angstroms)
    I     Atom           X                Y                Z
 ----------------------------------------------------------------
    1      N      -0.0021304070    -0.0153140751     0.0000000000
    2      O       0.0017453514    -1.2193228844     0.0000000000
    3      O      -1.0555675073     0.6162546024     0.0000000000
    4      O       1.0559528447     0.6144542791     0.0000000000
 ----------------------------------------------------------------
 Nuclear Repulsion Energy =         120.84471837 hartrees
 There are       16 alpha and       15 beta electrons
 Requested basis set is 6-311+G(2df,2pd)
 There are 32 shells and 136 basis functions

 Total QAlloc Memory Limit   2000 MB
 Mega-Array Size       188 MB
 MEM_STATIC part       192 MB

                       Distance Matrix (Angstroms)
             N (  1)   O (  2)   O (  3)
   O (  2)  1.204015
   O (  3)  1.228254  2.118314
   O (  4)  1.231320  2.115205  2.111521
 
 A cutoff of  1.0D-09 yielded    513 shell pairs
 There are      9519 function pairs (     12579 Cartesian)
 Smallest overlap matrix eigenvalue = 1.14E-03

 Scale SEOQF with 1.000000e-01/1.000000e-01/1.000000e-01

 Standard Electronic Orientation quadrupole field applied
 Nucleus-field energy     =     0.0000000019 hartrees
 Requested basis set is 6-31G(d)
 There are 16 shells and 56 basis functions
 A cutoff of  1.0D-09 yielded    133 shell pairs
 There are      1681 function pairs (      1935 Cartesian)
 Smallest overlap matrix eigenvalue = 6.13E-03
 Guess from superposition of atomic densities
 Warning:  Energy on first SCF cycle will be non-variational
 SAD guess density has 31.000000 electrons
 Long-range K will be added via erf
 Coulomb attenuation parameter = 0.2 bohr**(-1)
 An unrestricted hybrid HF-DFT SCF calculation will be
 performed using Relaxed Constraint Minimization + Pulay DIIS
 Exchange:     0.2220 Hartree-Fock + 1.0000 wB97X-D + LR-HF
 Correlation:  1.0000 wB97X-D
 Using Euler-Maclaurin-Lebedev (75,302) quadrature formula
 Dispersion:   Grimme D
 SCF converges when DIIS error is below 1.0E-04
 using 6 threads for integral computing
 -------------------------------------------------------
 OpenMP Integral computing Module                
 Release: version 1.0, May 2013, Q-Chem Inc. Pittsburgh 
 -------------------------------------------------------
 using 6 threads for integral computing
 -------------------------------------------------------
 OpenMP Integral computing Module                
 Release: version 1.0, May 2013, Q-Chem Inc. Pittsburgh 
 -------------------------------------------------------
 ---------------------------------------
  Cycle       Energy         DIIS Error
 ---------------------------------------
    1    -281.0573712933      1.16E-01
    2    -279.9214582903      2.58E-02
    3    -280.0059712169      3.65E-03
    4    -280.1137703771      2.89E-03
    5    -280.1148302110      3.81E-04 Done RCA. Switching to DIIS
    6    -280.1161749105      1.89E-04
    7    -280.1162090990      1.15E-04
    8    -280.1162228162      6.89E-05 Convergence criterion met
 ---------------------------------------
 <S^2> = 0.7552
 SCF time:  CPU 16.83 s  wall 4.46 s
 SCF   energy in the small basis set = -280.11622282
 Total energy in the small basis set = -280.11622282
 ----------------------------------------------------
  Cycle       Energy    
 ----------------------------------------------------
    1     -28.3682723188     -2.84E+01
 Long-range K will be added via erf
 Coulomb attenuation parameter = 0.2 bohr**(-1)
 An unrestricted hybrid HF-DFT SCF calculation will be
 performed using Relaxed Constraint Minimization + Pulay DIIS
 Exchange:     0.2220 Hartree-Fock + 1.0000 wB97X-D + LR-HF
 Correlation:  1.0000 wB97X-D
 Using Euler-Maclaurin-Lebedev (75,302) quadrature formula
 Dispersion:   Grimme D
 SCF converges when DIIS error is below 1.0E-05
 Basis2 calculation detected. Using small basis as guess for larger.
 SCFMinFind is unable to tell whether the solution found is close.
 Resetting ReadMinima to 0 and attempting to follow guess.
 SCFMinFind following SCF Guess.
 using 6 threads for integral computing
 -------------------------------------------------------
 OpenMP Integral computing Module                
 Release: version 1.0, May 2013, Q-Chem Inc. Pittsburgh 
 -------------------------------------------------------
 using 6 threads for integral computing
 -------------------------------------------------------
 OpenMP Integral computing Module                
 Release: version 1.0, May 2013, Q-Chem Inc. Pittsburgh 
 -------------------------------------------------------
 ---------------------------------------
  Cycle       Energy         DIIS Error
 ---------------------------------------
    1    -280.1899391863      9.83E-03
    2    -280.2035296857      4.04E-03
    3    -280.2124402497      9.47E-04 Done RCA. Switching to DIIS
    4    -280.2238982585      9.25E-04
    5    -280.2250631111      2.09E-04
    6    -280.2251437034      5.81E-05
    7    -280.2251637322      3.05E-05
    8    -280.2251771343      2.47E-05
    9    -280.2251896796      1.59E-05
   10    -280.2251936736      3.76E-06 Convergence criterion met
 ---------------------------------------
 <S^2> = 0.7572
 SCF time:  CPU 41.04 s  wall 7.83 s
 SCF   energy in the final basis set = -280.22519367
 Total energy in the final basis set = -280.22519367
 
 --------------------------------------------------------------
 
                    Orbital Energies (a.u.)
 --------------------------------------------------------------
 
 Alpha MOs
 -- Occupied --
-19.3859 -19.3836 -19.3748 -14.7881  -1.4793  -1.2591  -1.2502  -0.7907
 -0.7408  -0.7160  -0.7113  -0.5389  -0.5279  -0.4889  -0.4857  -0.4658
 -- Virtual --
 -0.0289   0.0868   0.1380   0.1382   0.1574   0.2295   0.2320   0.2370
  0.2595   0.2598   0.2651   0.3279   0.3371   0.3391   0.3482   0.3486
  0.4014   0.4278   0.4402   0.4460   0.7597   0.8002   0.8702   0.8743
  0.9868   0.9917   1.0059   1.0619   1.0624   1.0650   1.0687   1.1013
  1.1062   1.1495   1.1784   1.3437   1.4206   1.4330   1.5350   1.5445
  1.5499   1.5864   1.5995   1.6087   1.8346   1.8503   1.9336   1.9417
  1.9648   2.2824   2.3026   2.4279   2.4687   2.4933   2.7335   2.7545
  3.6227   3.6740   3.6815   3.7295   3.7300   3.9680   4.0402   4.2830
  4.3543   4.3825   4.4351   4.4752   4.5747   4.5870   4.6113   4.9828
  4.9948   4.9972   4.9993   5.0033   5.0223   5.0249   5.0928   5.1011
  5.1124   5.1145   5.1194   5.1291   5.2251   5.2560   5.2857   5.4918
  5.4950   5.7276   5.8313   5.8337   6.1817   6.1983   6.4341   6.5269
  6.5643   6.5898   6.7338   6.7444   6.7576   6.8060   6.8104   6.8207
  6.9829   7.1696   7.1898   7.2046   7.4425   7.4461   7.5371   7.5688
  7.7940   7.8103   7.9919   8.0150  36.1864  50.0859  50.1636  50.1974
 
 Beta MOs
 -- Occupied --
-19.3752 -19.3736 -19.3675 -14.7891  -1.4683  -1.2399  -1.2259  -0.7717
 -0.7384  -0.6925  -0.6884  -0.4747  -0.4743  -0.4665  -0.4636
 -- Virtual --
 -0.1793  -0.0245   0.0865   0.1366   0.1368   0.1569   0.2304   0.2322
  0.2372   0.2589   0.2591   0.2725   0.3289   0.3356   0.3375   0.3471
  0.3481   0.4159   0.4420   0.4425   0.4479   0.7586   0.8018   0.8780
  0.8808   0.9879   0.9943   1.0088   1.0654   1.0690   1.0765   1.0779
  1.1081   1.1108   1.1699   1.1820   1.3499   1.4356   1.4513   1.5485
  1.5555   1.5697   1.5944   1.6102   1.6184   1.8490   1.8648   1.9509
  1.9548   1.9678   2.2869   2.3073   2.4372   2.4746   2.4976   2.7480
  2.7673   3.6203   3.6746   3.6816   3.7315   3.7319   3.9678   4.0525
  4.2888   4.3625   4.3904   4.4413   4.4821   4.5740   4.5870   4.6108
  5.0002   5.0120   5.0267   5.0273   5.0303   5.0505   5.0535   5.1199
  5.1226   5.1262   5.1351   5.1366   5.1473   5.2321   5.2820   5.3069
  5.5057   5.5079   5.7469   5.8398   5.8425   6.2083   6.2208   6.4392
  6.5337   6.5769   6.5948   6.7712   6.7809   6.7872   6.8448   6.8487
  6.8497   7.0142   7.1779   7.2012   7.2146   7.4644   7.4735   7.5586
  7.5827   7.8138   7.8246   7.9970   8.0189  36.1854  50.0950  50.1731
 50.2043
 --------------------------------------------------------------
 
 -----------------------------------------------------------------
                    Cartesian Multipole Moments
 -----------------------------------------------------------------
    Charge (ESU x 10^10)
                 0.0000
    Dipole Moment (Debye)
         X       0.0171      Y       0.0454      Z       0.0000
       Tot       0.0485
    Quadrupole Moments (Debye-Ang)
        XX     -22.5605     XY       0.0180     YY     -22.7542
        XZ       0.0000     YZ       0.0000     ZZ     -20.0440
    Octopole Moments (Debye-Ang^2)
       XXX       0.0477    XXY      -0.7427    XYY       0.0159
       YYY       1.0243    XXZ       0.0000    XYZ       0.0000
       YYZ      -0.0000    XZZ      -0.0089    YZZ      -0.0933
       ZZZ       0.0000
    Hexadecapole Moments (Debye-Ang^3)
      XXXX     -87.1922   XXXY       0.0682   XXYY     -29.3606
      XYYY       0.0946   YYYY     -88.2501   XXXZ       0.0000
      XXYZ       0.0000   XYYZ      -0.0000   YYYZ      -0.0000
      XXZZ     -17.3453   XYZZ       0.0162   YYZZ     -17.3429
      XZZZ      -0.0000   YZZZ       0.0000   ZZZZ     -14.9986
 -----------------------------------------------------------------
Archival summary:
1\1\centos77-c2\SP\ProcedureUnspecified\BasisUnspecified\31(2)\shihchen\SunJul1220:15:342020SunJul1220:15:342020\0\\#,ProcedureUnspecified,BasisUnspecified,\\0,2\N\O,1,1.20402\O,1,1.22825,2,121.128\O,1,1.23132,2,120.577,3,-180,0\\\@

 Total job time:  13.59s(wall), 61.32s(cpu) 
 Sun Jul 12 20:15:34 2020

        *************************************************************
        *                                                           *
        *  Thank you very much for using Q-Chem.  Have a nice day.  *
        *                                                           *
        *************************************************************


