                  Welcome to Q-Chem
     A Quantum Leap Into The Future Of Chemistry


 Q-Chem 5.3 (devel), Q-Chem, Inc., Pleasanton, CA (2020)

 Yihan Shao,  Zhengting Gan,  E. Epifanovsky,  A. T. B. Gilbert,  M. Wormit,  
 J. Kussmann,  A. W. Lange,  A. Behn,  Jia Deng,  Xintian Feng,  D. Ghosh,  
 M. Goldey,  P. R. Horn,  L. D. Jacobson,  I. Kaliman,  T. Kus,  A. Landau,  
 Jie Liu,  E. I. Proynov,  R. M. Richard,  R. P. Steele,  E. J. Sundstrom,  
 H. L. Woodcock III,  P. M. Zimmerman,  D. Zuev,  B. Alam,  B. Albrecht,  
 E. Alguire,  S. A. Baeppler,  D. Barton,  Z. Benda,  Y. A. Bernard,  
 E. J. Berquist,  K. B. Bravaya,  H. Burton,  K. Carter-Fenk,  D. Casanova,  
 Chun-Min Chang,  Yunqing Chen,  A. Chien,  K. D. Closser,  M. P. Coons,  
 S. Coriani,  S. Dasgupta,  A. L. Dempwolff,  M. Diedenhofen,  Hainam Do,  
 R. G. Edgar,  Po-Tung Fang,  S. Faraji,  S. Fatehi,  Qingguo Feng,  
 J. Fosso-Tande,  J. Gayvert,  Qinghui Ge,  A. Ghysels,  G. Gidofalvi,  
 J. Gomes,  J. Gonthier,  A. Gunina,  D. Hait,  M. W. D. Hanson-Heine,  
 P. H. P. Harbach,  A. W. Hauser,  M. F. Herbst,  J. E. Herr,  
 E. G. Hohenstein,  Z. C. Holden,  Kerwin Hui,  B. C. Huynh,  T.-C. Jagau,  
 Hyunjun Ji,  B. Kaduk,  K. Khistyaev,  Jaehoon Kim,  P. Klunzinger,  K. Koh,  
 D. Kosenkov,  L. Koulias,  T. Kowalczyk,  C. M. Krauter,  A. Kunitsa,  
 Ka Un Lao,  A. Laurent,  K. V. Lawler,  Joonho Lee,  D. Lefrancois,  
 S. Lehtola,  D. S. Levine,  Yi-Pei Li,  You-Sheng Lin,  Fenglai Liu,  
 Kuan-Yu Liu,  E. Livshits,  M. Loipersberger,  A. Luenser,  P. Manohar,  
 E. Mansoor,  S. F. Manzer,  Shan-Ping Mao,  Yuezhi Mao,  N. Mardirossian,  
 A. V. Marenich,  T. Markovich,  L. A. Martinez-Martinez,  S. A. Maurer,  
 N. J. Mayhall,  S. C. McKenzie,  J.-M. Mewes,  P. Morgante,  A. F. Morrison,  
 J. W. Mullinax,  K. Nanda,  T. S. Nguyen-Beck,  R. Olivares-Amaya,  
 K. J. Oosterbaan,  J. A. Parkhill,  S. K. Paul,  F. Pavosevic,  Zheng Pei,  
 T. M. Perrine,  F. Plasser,  P. Pokhilko,  S. Prager,  A. Prociuk,  
 E. Ramos,  B. Rana,  D. R. Rehn,  F. Rob,  M. Scheurer,  M. Schneider,  
 N. Sergueev,  S. M. Sharada,  S. Sharma,  D. W. Small,  T. Stauch,  
 C. J. Stein,  T. Stein,  Yu-Chuan Su,  S. P. Veccham,  Zhen Tao,  
 A. J. W. Thom,  A. Tkatchenko,  T. Tsuchimochi,  N. M. Tubman,  L. Vogt,  
 M. L. Vidal,  O. Vydrov,  M. A. Watson,  J. Wenzel,  M. de Wergifosse,  
 T. A. Wesolowski,  A. White,  J. Witte,  A. Yamada,  Jun Yang,  K. Yao,  
 S. Yeganeh,  S. R. Yost,  Zhi-Qiang You,  A. Zech,  Igor Ying Zhang,  
 Xing Zhang,  Yan Zhao,  Ying Zhu,  B. R. Brooks,  G. K. L. Chan,  
 C. J. Cramer,  M. S. Gordon,  W. J. Hehre,  A. Klamt,  M. W. Schmidt,  
 C. D. Sherrill,  D. G. Truhlar,  A. Aspuru-Guzik,  R. Baer,  A. T. Bell,  
 N. A. Besley,  Jeng-Da Chai,  A. E. DePrince, III,  R. A. DiStasio Jr.,  
 A. Dreuw,  B. D. Dunietz,  T. R. Furlani,  Chao-Ping Hsu,  Yousung Jung,  
 Jing Kong,  D. S. Lambrecht,  WanZhen Liang,  C. Ochsenfeld,  
 V. A. Rassolov,  L. V. Slipchenko,  J. E. Subotnik,  T. Van Voorhis,  
 J. M. Herbert,  A. I. Krylov,  P. M. W. Gill,  M. Head-Gordon

 Contributors to earlier versions of Q-Chem not listed above: 
 R. D. Adamson,  B. Austin,  J. Baker,  G. J. O. Beran,  K. Brandhorst,  
 S. T. Brown,  E. F. C. Byrd,  A. K. Chakraborty,  C.-L. Cheng,  
 Siu Hung Chien,  D. M. Chipman,  D. L. Crittenden,  H. Dachsel,  
 R. J. Doerksen,  A. D. Dutoi,  L. Fusti-Molnar,  W. A. Goddard III,  
 A. Golubeva-Zadorozhnaya,  S. R. Gwaltney,  G. Hawkins,  A. Heyden,  
 S. Hirata,  G. Kedziora,  F. J. Keil,  C. Kelley,  Jihan Kim,  R. A. King,  
 R. Z. Khaliullin,  P. P. Korambath,  W. Kurlancheek,  A. M. Lee,  M. S. Lee,  
 S. V. Levchenko,  Ching Yeh Lin,  D. Liotard,  R. C. Lochan,  I. Lotan,  
 P. E. Maslen,  N. Nair,  D. P. O'Neill,  D. Neuhauser,  E. Neuscamman,  
 C. M. Oana,  R. Olson,  B. Peters,  R. Peverati,  P. A. Pieniazek,  
 Y. M. Rhee,  J. Ritchie,  M. A. Rohrdanz,  E. Rosta,  N. J. Russ,  
 H. F. Schaefer III,  N. E. Schultz,  N. Shenvi,  A. C. Simmonett,  A. Sodt,  
 D. Stuck,  K. S. Thanthiriwatte,  V. Vanovschi,  Tao Wang,  A. Warshel,  
 C. F. Williams,  Q. Wu,  X. Xu,  W. Zhang

 Please cite Q-Chem as follows:
 Y. Shao et al., Mol. Phys. 113, 184-215 (2015)
 DOI: 10.1080/00268976.2014.952696

 Q-Chem 5.3.0 for Intel X86 EM64T Linux

 Parts of Q-Chem use Armadillo 9.800.1 (Horizon Scraper).
 http://arma.sourceforge.net/

 Q-Chem begins on Sun Jul 12 20:19:44 2020  

Host: centos77-c2
0

     Scratch files written to /tmp/28905.centos77-h1/qchem121444//
Processing $rem in /opt/qchem-5.3.0-intel2020u1//config/preferences:
Processing $rem in /home/shihchengli/.qchemrc:

Checking the input file for inconsistencies... 	...done.

--------------------------------------------------------------
User input:
--------------------------------------------------------------
$rem
   JOBTYPE  sp
   EXCHANGE   omegaB97X-D
   BASIS   6-311+G(2df,2pd)
   UNRESTRICTED   True
   max_scf_cycles   250
   geom_opt_max_cycles   1500
   basis2 6-31G*
   scf_algorithm rca_diis
   SYM_IGNORE  TRUE
   print_input   true
   geom_opt_dmax   80
   pop_mulliken false
   XC_GRID 000075000302
$end

$molecule
0 2
N       -0.0002476637     -0.0516438460     -0.0462950701
O       0.0001854449     -1.2436679407     0.0170773190
O       -1.0248413759     0.6457947085     0.0146164028
O       1.0249038765     0.6455890002     0.0146013483
$end
--------------------------------------------------------------
 ----------------------------------------------------------------
             Standard Nuclear Orientation (Angstroms)
    I     Atom           X                Y                Z
 ----------------------------------------------------------------
    1      N      -0.0002476637    -0.0516438460    -0.0462950701
    2      O       0.0001854449    -1.2436679407     0.0170773190
    3      O      -1.0248413759     0.6457947085     0.0146164028
    4      O       1.0249038765     0.6455890002     0.0146013483
 ----------------------------------------------------------------
 Nuclear Repulsion Energy =         120.61454798 hartrees
 There are       16 alpha and       15 beta electrons
 Requested basis set is 6-311+G(2df,2pd)
 There are 32 shells and 136 basis functions

 Total QAlloc Memory Limit   2000 MB
 Mega-Array Size       188 MB
 MEM_STATIC part       192 MB

                       Distance Matrix (Angstroms)
             N (  1)   O (  2)   O (  3)
   O (  2)  1.193708
   O (  3)  1.240936  2.149594
   O (  4)  1.241281  2.149266  2.049745
 
 A cutoff of  1.0D-09 yielded    513 shell pairs
 There are      9519 function pairs (     12579 Cartesian)
 Smallest overlap matrix eigenvalue = 1.11E-03

 Scale SEOQF with 1.000000e-01/1.000000e-01/1.000000e-01

 Standard Electronic Orientation quadrupole field applied
 Nucleus-field energy     =     0.0000000020 hartrees
 Requested basis set is 6-31G(d)
 There are 16 shells and 56 basis functions
 A cutoff of  1.0D-09 yielded    133 shell pairs
 There are      1681 function pairs (      1935 Cartesian)
 Smallest overlap matrix eigenvalue = 5.71E-03
 Guess from superposition of atomic densities
 Warning:  Energy on first SCF cycle will be non-variational
 SAD guess density has 31.000000 electrons
 Long-range K will be added via erf
 Coulomb attenuation parameter = 0.2 bohr**(-1)
 An unrestricted hybrid HF-DFT SCF calculation will be
 performed using Relaxed Constraint Minimization + Pulay DIIS
 Exchange:     0.2220 Hartree-Fock + 1.0000 wB97X-D + LR-HF
 Correlation:  1.0000 wB97X-D
 Using Euler-Maclaurin-Lebedev (75,302) quadrature formula
 Dispersion:   Grimme D
 SCF converges when DIIS error is below 1.0E-04
 using 6 threads for integral computing
 -------------------------------------------------------
 OpenMP Integral computing Module                
 Release: version 1.0, May 2013, Q-Chem Inc. Pittsburgh 
 -------------------------------------------------------
 using 6 threads for integral computing
 -------------------------------------------------------
 OpenMP Integral computing Module                
 Release: version 1.0, May 2013, Q-Chem Inc. Pittsburgh 
 -------------------------------------------------------
 ---------------------------------------
  Cycle       Energy         DIIS Error
 ---------------------------------------
    1    -281.0335765701      1.15E-01
    2    -279.9151868805      2.60E-02
    3    -280.0006474764      3.93E-03
    4    -280.1107288121      3.64E-03
    5    -280.1123635074      6.41E-04 Done RCA. Switching to DIIS
    6    -280.1146159475      6.79E-04
    7    -280.1148325567      1.74E-04
    8    -280.1149250923      1.20E-04
    9    -280.1150043730      3.56E-05 Convergence criterion met
 ---------------------------------------
 <S^2> = 0.7558
 SCF time:  CPU 18.87 s  wall 4.92 s
 SCF   energy in the small basis set = -280.11500437
 Total energy in the small basis set = -280.11500437
 ----------------------------------------------------
  Cycle       Energy    
 ----------------------------------------------------
    1     -28.3665301102     -2.84E+01
 Long-range K will be added via erf
 Coulomb attenuation parameter = 0.2 bohr**(-1)
 An unrestricted hybrid HF-DFT SCF calculation will be
 performed using Relaxed Constraint Minimization + Pulay DIIS
 Exchange:     0.2220 Hartree-Fock + 1.0000 wB97X-D + LR-HF
 Correlation:  1.0000 wB97X-D
 Using Euler-Maclaurin-Lebedev (75,302) quadrature formula
 Dispersion:   Grimme D
 SCF converges when DIIS error is below 1.0E-05
 Basis2 calculation detected. Using small basis as guess for larger.
 SCFMinFind is unable to tell whether the solution found is close.
 Resetting ReadMinima to 0 and attempting to follow guess.
 SCFMinFind following SCF Guess.
 using 6 threads for integral computing
 -------------------------------------------------------
 OpenMP Integral computing Module                
 Release: version 1.0, May 2013, Q-Chem Inc. Pittsburgh 
 -------------------------------------------------------
 using 6 threads for integral computing
 -------------------------------------------------------
 OpenMP Integral computing Module                
 Release: version 1.0, May 2013, Q-Chem Inc. Pittsburgh 
 -------------------------------------------------------
 ---------------------------------------
  Cycle       Energy         DIIS Error
 ---------------------------------------
    1    -280.1827324425      9.93E-03
    2    -280.1867868217      5.09E-03
    3    -280.1998306635      1.66E-03
    4    -280.2189064935      1.30E-03
    5    -280.2207969173      3.12E-04 Done RCA. Switching to DIIS
    6    -280.2231352894      4.43E-04
    7    -280.2235902354      7.06E-05
    8    -280.2236498820      4.34E-05
    9    -280.2237296892      4.78E-05
   10    -280.2237773376      1.34E-05
   11    -280.2237785321      2.99E-06 Convergence criterion met
 ---------------------------------------
 <S^2> = 0.7574
 SCF time:  CPU 44.89 s  wall 8.58 s
 SCF   energy in the final basis set = -280.22377853
 Total energy in the final basis set = -280.22377853
 
 --------------------------------------------------------------
 
                    Orbital Energies (a.u.)
 --------------------------------------------------------------
 
 Alpha MOs
 -- Occupied --
-19.3903 -19.3900 -19.3612 -14.7865  -1.4758  -1.2651  -1.2378  -0.7920
 -0.7380  -0.7160  -0.7064  -0.5519  -0.5153  -0.4900  -0.4827  -0.4612
 -- Virtual --
 -0.0325   0.0877   0.1377   0.1387   0.1572   0.2268   0.2282   0.2395
  0.2589   0.2592   0.2641   0.3275   0.3313   0.3409   0.3421   0.3562
  0.3686   0.4366   0.4402   0.4620   0.7600   0.7923   0.8571   0.8786
  0.9795   0.9884   1.0009   1.0502   1.0628   1.0696   1.0749   1.1118
  1.1140   1.1490   1.1772   1.3440   1.3856   1.4703   1.5135   1.5437
  1.5773   1.5812   1.5866   1.6287   1.7926   1.8434   1.8901   1.9860
  2.0134   2.2408   2.3202   2.4221   2.4466   2.5065   2.6901   2.7592
  3.6241   3.6541   3.6602   3.7389   3.7597   3.9623   4.0085   4.2660
  4.3495   4.3847   4.4213   4.5105   4.5688   4.5967   4.6372   4.9710
  4.9853   4.9953   5.0000   5.0105   5.0204   5.0309   5.0731   5.1012
  5.1059   5.1239   5.1296   5.1692   5.2207   5.2317   5.3293   5.4800
  5.5262   5.6769   5.7932   5.8179   6.1234   6.2269   6.3359   6.5446
  6.5777   6.6725   6.7336   6.7361   6.7725   6.7880   6.8159   6.8342
  7.0428   7.1680   7.1698   7.2128   7.3402   7.3790   7.5399   7.5676
  7.8150   7.8166   7.9906   8.0125  36.1747  50.0506  50.1580  50.2214
 
 Beta MOs
 -- Occupied --
-19.3779 -19.3777 -19.3581 -14.7874  -1.4645  -1.2502  -1.2078  -0.7723
 -0.7352  -0.6942  -0.6845  -0.4756  -0.4740  -0.4670  -0.4651
 -- Virtual --
 -0.1706  -0.0286   0.0875   0.1373   0.1377   0.1568   0.2275   0.2298
  0.2403   0.2586   0.2587   0.2717   0.3287   0.3302   0.3404   0.3415
  0.3557   0.3805   0.4391   0.4446   0.4733   0.7592   0.7940   0.8612
  0.8863   0.9829   0.9900   1.0111   1.0567   1.0679   1.0782   1.0815
  1.1159   1.1188   1.1725   1.1803   1.3523   1.3964   1.4914   1.5282
  1.5525   1.5925   1.5930   1.5982   1.6390   1.8049   1.8534   1.8968
  2.0114   2.0189   2.2447   2.3247   2.4328   2.4542   2.5089   2.7046
  2.7692   3.6221   3.6552   3.6612   3.7399   3.7621   3.9627   4.0196
  4.2715   4.3592   4.3920   4.4266   4.5179   4.5684   4.5991   4.6373
  4.9936   5.0115   5.0275   5.0296   5.0331   5.0477   5.0513   5.0994
  5.1208   5.1233   5.1403   5.1419   5.1865   5.2322   5.2617   5.3479
  5.4885   5.5440   5.6936   5.8015   5.8260   6.1403   6.2530   6.3470
  6.5530   6.5910   6.6904   6.7674   6.7709   6.8075   6.8296   6.8369
  6.8597   7.0765   7.1769   7.1828   7.2221   7.3541   7.4156   7.5619
  7.5802   7.8259   7.8348   7.9978   8.0162  36.1738  50.0622  50.1696
 50.2242
 --------------------------------------------------------------
 
 -----------------------------------------------------------------
                    Cartesian Multipole Moments
 -----------------------------------------------------------------
    Charge (ESU x 10^10)
                 0.0000
    Dipole Moment (Debye)
         X       0.0017      Y       0.1429      Z      -0.1136
       Tot       0.1826
    Quadrupole Moments (Debye-Ang)
        XX     -22.2465     XY       0.0013     YY     -23.0521
        XZ       0.0001     YZ       0.0344     ZZ     -20.0363
    Octopole Moments (Debye-Ang^2)
       XXX       0.0054    XXY      -0.5953    XYY       0.0014
       YYY       1.5065    XXZ       0.0886    XYZ      -0.0000
       YYZ       0.1532    XZZ      -0.0009    YZZ      -0.2156
       ZZZ      -0.0505
    Hexadecapole Moments (Debye-Ang^3)
      XXXX     -82.2549   XXXY       0.0066   XXYY     -29.5901
      XYYY       0.0075   YYYY     -93.1000   XXXZ       0.0003
      XXYZ       0.1685   XYYZ       0.0001   YYYZ      -0.0625
      XXZZ     -16.6845   XYZZ       0.0015   YYZZ     -18.0304
      XZZZ       0.0000   YZZZ       0.0057   ZZZZ     -15.0664
 -----------------------------------------------------------------
Archival summary:
1\1\centos77-c2\SP\ProcedureUnspecified\BasisUnspecified\31(2)\shihchen\SunJul1220:19:592020SunJul1220:19:592020\0\\#,ProcedureUnspecified,BasisUnspecified,\\0,2\N\O,1,1.19371\O,1,1.24094,2,123.982\O,1,1.24128,2,123.918,3,169.094,0\\\@

 Total job time:  15.50s(wall), 67.94s(cpu) 
 Sun Jul 12 20:19:59 2020

        *************************************************************
        *                                                           *
        *  Thank you very much for using Q-Chem.  Have a nice day.  *
        *                                                           *
        *************************************************************


