                  Welcome to Q-Chem
     A Quantum Leap Into The Future Of Chemistry


 Q-Chem 5.3 (devel), Q-Chem, Inc., Pleasanton, CA (2020)

 Yihan Shao,  Zhengting Gan,  E. Epifanovsky,  A. T. B. Gilbert,  M. Wormit,  
 J. Kussmann,  A. W. Lange,  A. Behn,  Jia Deng,  Xintian Feng,  D. Ghosh,  
 M. Goldey,  P. R. Horn,  L. D. Jacobson,  I. Kaliman,  T. Kus,  A. Landau,  
 Jie Liu,  E. I. Proynov,  R. M. Richard,  R. P. Steele,  E. J. Sundstrom,  
 H. L. Woodcock III,  P. M. Zimmerman,  D. Zuev,  B. Alam,  B. Albrecht,  
 E. Alguire,  S. A. Baeppler,  D. Barton,  Z. Benda,  Y. A. Bernard,  
 E. J. Berquist,  K. B. Bravaya,  H. Burton,  K. Carter-Fenk,  D. Casanova,  
 Chun-Min Chang,  Yunqing Chen,  A. Chien,  K. D. Closser,  M. P. Coons,  
 S. Coriani,  S. Dasgupta,  A. L. Dempwolff,  M. Diedenhofen,  Hainam Do,  
 R. G. Edgar,  Po-Tung Fang,  S. Faraji,  S. Fatehi,  Qingguo Feng,  
 J. Fosso-Tande,  J. Gayvert,  Qinghui Ge,  A. Ghysels,  G. Gidofalvi,  
 J. Gomes,  J. Gonthier,  A. Gunina,  D. Hait,  M. W. D. Hanson-Heine,  
 P. H. P. Harbach,  A. W. Hauser,  M. F. Herbst,  J. E. Herr,  
 E. G. Hohenstein,  Z. C. Holden,  Kerwin Hui,  B. C. Huynh,  T.-C. Jagau,  
 Hyunjun Ji,  B. Kaduk,  K. Khistyaev,  Jaehoon Kim,  P. Klunzinger,  K. Koh,  
 D. Kosenkov,  L. Koulias,  T. Kowalczyk,  C. M. Krauter,  A. Kunitsa,  
 Ka Un Lao,  A. Laurent,  K. V. Lawler,  Joonho Lee,  D. Lefrancois,  
 S. Lehtola,  D. S. Levine,  Yi-Pei Li,  You-Sheng Lin,  Fenglai Liu,  
 Kuan-Yu Liu,  E. Livshits,  M. Loipersberger,  A. Luenser,  P. Manohar,  
 E. Mansoor,  S. F. Manzer,  Shan-Ping Mao,  Yuezhi Mao,  N. Mardirossian,  
 A. V. Marenich,  T. Markovich,  L. A. Martinez-Martinez,  S. A. Maurer,  
 N. J. Mayhall,  S. C. McKenzie,  J.-M. Mewes,  P. Morgante,  A. F. Morrison,  
 J. W. Mullinax,  K. Nanda,  T. S. Nguyen-Beck,  R. Olivares-Amaya,  
 K. J. Oosterbaan,  J. A. Parkhill,  S. K. Paul,  F. Pavosevic,  Zheng Pei,  
 T. M. Perrine,  F. Plasser,  P. Pokhilko,  S. Prager,  A. Prociuk,  
 E. Ramos,  B. Rana,  D. R. Rehn,  F. Rob,  M. Scheurer,  M. Schneider,  
 N. Sergueev,  S. M. Sharada,  S. Sharma,  D. W. Small,  T. Stauch,  
 C. J. Stein,  T. Stein,  Yu-Chuan Su,  S. P. Veccham,  Zhen Tao,  
 A. J. W. Thom,  A. Tkatchenko,  T. Tsuchimochi,  N. M. Tubman,  L. Vogt,  
 M. L. Vidal,  O. Vydrov,  M. A. Watson,  J. Wenzel,  M. de Wergifosse,  
 T. A. Wesolowski,  A. White,  J. Witte,  A. Yamada,  Jun Yang,  K. Yao,  
 S. Yeganeh,  S. R. Yost,  Zhi-Qiang You,  A. Zech,  Igor Ying Zhang,  
 Xing Zhang,  Yan Zhao,  Ying Zhu,  B. R. Brooks,  G. K. L. Chan,  
 C. J. Cramer,  M. S. Gordon,  W. J. Hehre,  A. Klamt,  M. W. Schmidt,  
 C. D. Sherrill,  D. G. Truhlar,  A. Aspuru-Guzik,  R. Baer,  A. T. Bell,  
 N. A. Besley,  Jeng-Da Chai,  A. E. DePrince, III,  R. A. DiStasio Jr.,  
 A. Dreuw,  B. D. Dunietz,  T. R. Furlani,  Chao-Ping Hsu,  Yousung Jung,  
 Jing Kong,  D. S. Lambrecht,  WanZhen Liang,  C. Ochsenfeld,  
 V. A. Rassolov,  L. V. Slipchenko,  J. E. Subotnik,  T. Van Voorhis,  
 J. M. Herbert,  A. I. Krylov,  P. M. W. Gill,  M. Head-Gordon

 Contributors to earlier versions of Q-Chem not listed above: 
 R. D. Adamson,  B. Austin,  J. Baker,  G. J. O. Beran,  K. Brandhorst,  
 S. T. Brown,  E. F. C. Byrd,  A. K. Chakraborty,  C.-L. Cheng,  
 Siu Hung Chien,  D. M. Chipman,  D. L. Crittenden,  H. Dachsel,  
 R. J. Doerksen,  A. D. Dutoi,  L. Fusti-Molnar,  W. A. Goddard III,  
 A. Golubeva-Zadorozhnaya,  S. R. Gwaltney,  G. Hawkins,  A. Heyden,  
 S. Hirata,  G. Kedziora,  F. J. Keil,  C. Kelley,  Jihan Kim,  R. A. King,  
 R. Z. Khaliullin,  P. P. Korambath,  W. Kurlancheek,  A. M. Lee,  M. S. Lee,  
 S. V. Levchenko,  Ching Yeh Lin,  D. Liotard,  R. C. Lochan,  I. Lotan,  
 P. E. Maslen,  N. Nair,  D. P. O'Neill,  D. Neuhauser,  E. Neuscamman,  
 C. M. Oana,  R. Olson,  B. Peters,  R. Peverati,  P. A. Pieniazek,  
 Y. M. Rhee,  J. Ritchie,  M. A. Rohrdanz,  E. Rosta,  N. J. Russ,  
 H. F. Schaefer III,  N. E. Schultz,  N. Shenvi,  A. C. Simmonett,  A. Sodt,  
 D. Stuck,  K. S. Thanthiriwatte,  V. Vanovschi,  Tao Wang,  A. Warshel,  
 C. F. Williams,  Q. Wu,  X. Xu,  W. Zhang

 Please cite Q-Chem as follows:
 Y. Shao et al., Mol. Phys. 113, 184-215 (2015)
 DOI: 10.1080/00268976.2014.952696

 Q-Chem 5.3.0 for Intel X86 EM64T Linux

 Parts of Q-Chem use Armadillo 9.800.1 (Horizon Scraper).
 http://arma.sourceforge.net/

 Q-Chem begins on Sun Jul 12 20:22:25 2020  

Host: centos77-c2
0

     Scratch files written to /tmp/28905.centos77-h1/qchem122039//
Processing $rem in /opt/qchem-5.3.0-intel2020u1//config/preferences:
Processing $rem in /home/shihchengli/.qchemrc:

Checking the input file for inconsistencies... 	...done.

--------------------------------------------------------------
User input:
--------------------------------------------------------------
$rem
   JOBTYPE  sp
   EXCHANGE   omegaB97X-D
   BASIS   6-311+G(2df,2pd)
   UNRESTRICTED   True
   max_scf_cycles   250
   geom_opt_max_cycles   1500
   basis2 6-31G*
   scf_algorithm rca_diis
   SYM_IGNORE  TRUE
   print_input   true
   geom_opt_dmax   80
   pop_mulliken false
   XC_GRID 000075000302
$end

$molecule
0 2
N       0.0028075298     -0.0561070965     0.2292083368
O       -0.0045625243     -1.2078919194     -0.0842802490
O       -0.9883332432     0.6267939909     -0.0728000949
O       0.9900885196     0.6332769470     -0.0721279929
$end
--------------------------------------------------------------
 ----------------------------------------------------------------
             Standard Nuclear Orientation (Angstroms)
    I     Atom           X                Y                Z
 ----------------------------------------------------------------
    1      N       0.0028075298    -0.0561070965     0.2292083368
    2      O      -0.0045625243    -1.2078919194    -0.0842802490
    3      O      -0.9883332432     0.6267939909    -0.0728000949
    4      O       0.9900885196     0.6332769470    -0.0721279929
 ----------------------------------------------------------------
 Nuclear Repulsion Energy =         122.14893130 hartrees
 There are       16 alpha and       15 beta electrons
 Requested basis set is 6-311+G(2df,2pd)
 There are 32 shells and 136 basis functions

 Total QAlloc Memory Limit   2000 MB
 Mega-Array Size       188 MB
 MEM_STATIC part       192 MB

                       Distance Matrix (Angstroms)
             N (  1)   O (  2)   O (  3)
   O (  2)  1.193708
   O (  3)  1.240936  2.081828
   O (  4)  1.241281  2.092697  1.978432
 
 A cutoff of  1.0D-09 yielded    515 shell pairs
 There are      9529 function pairs (     12591 Cartesian)
 Smallest overlap matrix eigenvalue = 8.82E-04

 Scale SEOQF with 1.000000e-01/1.000000e-01/1.000000e-01

 Standard Electronic Orientation quadrupole field applied
 Nucleus-field energy     =     0.0000000018 hartrees
 Requested basis set is 6-31G(d)
 There are 16 shells and 56 basis functions
 A cutoff of  1.0D-09 yielded    133 shell pairs
 There are      1681 function pairs (      1935 Cartesian)
 Smallest overlap matrix eigenvalue = 3.96E-03
 Guess from superposition of atomic densities
 Warning:  Energy on first SCF cycle will be non-variational
 SAD guess density has 31.000000 electrons
 Long-range K will be added via erf
 Coulomb attenuation parameter = 0.2 bohr**(-1)
 An unrestricted hybrid HF-DFT SCF calculation will be
 performed using Relaxed Constraint Minimization + Pulay DIIS
 Exchange:     0.2220 Hartree-Fock + 1.0000 wB97X-D + LR-HF
 Correlation:  1.0000 wB97X-D
 Using Euler-Maclaurin-Lebedev (75,302) quadrature formula
 Dispersion:   Grimme D
 SCF converges when DIIS error is below 1.0E-04
 using 6 threads for integral computing
 -------------------------------------------------------
 OpenMP Integral computing Module                
 Release: version 1.0, May 2013, Q-Chem Inc. Pittsburgh 
 -------------------------------------------------------
 using 6 threads for integral computing
 -------------------------------------------------------
 OpenMP Integral computing Module                
 Release: version 1.0, May 2013, Q-Chem Inc. Pittsburgh 
 -------------------------------------------------------
 ---------------------------------------
  Cycle       Energy         DIIS Error
 ---------------------------------------
    1    -281.0623214787      1.16E-01
    2    -279.8496644329      2.68E-02
    3    -279.9408863747      4.47E-03
    4    -280.0597307435      4.82E-03
    5    -280.0625266989      9.15E-04 Done RCA. Switching to DIIS
    6    -280.0663283349      9.99E-04
    7    -280.0667379812      1.63E-04
    8    -280.0668648504      1.18E-04
    9    -280.0669359386      1.04E-04
   10    -280.0670092462      4.38E-05 Convergence criterion met
 ---------------------------------------
 <S^2> = 0.7594
 SCF time:  CPU 13.64 s  wall 2.71 s
 SCF   energy in the small basis set = -280.06700925
 Total energy in the small basis set = -280.06700925
 ----------------------------------------------------
  Cycle       Energy    
 ----------------------------------------------------
    1     -28.3886263365     -2.84E+01
 Long-range K will be added via erf
 Coulomb attenuation parameter = 0.2 bohr**(-1)
 An unrestricted hybrid HF-DFT SCF calculation will be
 performed using Relaxed Constraint Minimization + Pulay DIIS
 Exchange:     0.2220 Hartree-Fock + 1.0000 wB97X-D + LR-HF
 Correlation:  1.0000 wB97X-D
 Using Euler-Maclaurin-Lebedev (75,302) quadrature formula
 Dispersion:   Grimme D
 SCF converges when DIIS error is below 1.0E-05
 Basis2 calculation detected. Using small basis as guess for larger.
 SCFMinFind is unable to tell whether the solution found is close.
 Resetting ReadMinima to 0 and attempting to follow guess.
 SCFMinFind following SCF Guess.
 using 6 threads for integral computing
 -------------------------------------------------------
 OpenMP Integral computing Module                
 Release: version 1.0, May 2013, Q-Chem Inc. Pittsburgh 
 -------------------------------------------------------
 using 6 threads for integral computing
 -------------------------------------------------------
 OpenMP Integral computing Module                
 Release: version 1.0, May 2013, Q-Chem Inc. Pittsburgh 
 -------------------------------------------------------
 ---------------------------------------
  Cycle       Energy         DIIS Error
 ---------------------------------------
    1    -280.1337131215      9.95E-03
    2    -280.1372911947      5.15E-03
    3    -280.1506483169      1.70E-03
    4    -280.1703843973      1.27E-03
    5    -280.1724857793      3.89E-04 Done RCA. Switching to DIIS
    6    -280.1749267054      5.80E-04
    7    -280.1756453674      8.24E-05
    8    -280.1757438166      4.63E-05
    9    -280.1758872083      4.70E-05
   10    -280.1760302088      2.19E-05
   11    -280.1760518353      1.30E-05
   12    -280.1760773400      8.78E-06 Convergence criterion met
 ---------------------------------------
 <S^2> = 0.7625
 SCF time:  CPU 54.10 s  wall 9.78 s
 SCF   energy in the final basis set = -280.17607734
 Total energy in the final basis set = -280.17607734
 
 --------------------------------------------------------------
 
                    Orbital Energies (a.u.)
 --------------------------------------------------------------
 
 Alpha MOs
 -- Occupied --
-19.3849 -19.3836 -19.3531 -14.7801  -1.4852  -1.2546  -1.2267  -0.7966
 -0.7368  -0.7114  -0.7007  -0.5560  -0.5130  -0.4797  -0.4675  -0.4468
 -- Virtual --
 -0.0890   0.1014   0.1390   0.1407   0.1485   0.2264   0.2364   0.2414
  0.2514   0.2527   0.3095   0.3192   0.3298   0.3357   0.3508   0.3565
  0.3949   0.4191   0.4221   0.4326   0.7526   0.7540   0.7660   0.8740
  0.9787   0.9806   0.9944   1.0259   1.0281   1.1032   1.1134   1.1258
  1.1452   1.1509   1.1566   1.3625   1.4130   1.4788   1.5397   1.5452
  1.5611   1.5908   1.6186   1.6428   1.6772   1.8745   1.9301   2.0677
  2.1165   2.1735   2.2383   2.4140   2.4306   2.5001   2.5542   2.5890
  3.6116   3.6200   3.6416   3.7940   3.8895   3.9378   4.0042   4.3177
  4.3196   4.4381   4.4538   4.5031   4.5937   4.6499   4.6579   4.9608
  4.9799   4.9836   5.0011   5.0176   5.0337   5.0352   5.0560   5.0828
  5.0903   5.1289   5.1525   5.1566   5.2867   5.2988   5.4209   5.6036
  5.6566   5.6683   5.7292   5.7886   6.1277   6.1875   6.3800   6.5193
  6.5324   6.7080   6.7150   6.7476   6.7783   6.7989   6.8290   6.9656
  7.0997   7.1356   7.2262   7.2404   7.3358   7.3597   7.4814   7.5707
  7.5822   7.7834   7.8847   7.9636  36.2101  50.0495  50.1514  50.2084
 
 Beta MOs
 -- Occupied --
-19.3714 -19.3705 -19.3517 -14.7810  -1.4735  -1.2412  -1.1944  -0.7806
 -0.7285  -0.6895  -0.6810  -0.4841  -0.4774  -0.4570  -0.4427
 -- Virtual --
 -0.1532  -0.0842   0.1007   0.1403   0.1405   0.1474   0.2275   0.2368
  0.2416   0.2520   0.2536   0.3108   0.3235   0.3313   0.3347   0.3590
  0.3618   0.3957   0.4250   0.4262   0.4359   0.7536   0.7553   0.7655
  0.8764   0.9851   0.9916   1.0072   1.0330   1.0370   1.1057   1.1194
  1.1324   1.1496   1.1597   1.1786   1.3703   1.4268   1.4901   1.5485
  1.5558   1.5801   1.5973   1.6413   1.6506   1.6837   1.8842   1.9380
  2.0938   2.1213   2.1769   2.2452   2.4220   2.4400   2.5049   2.5655
  2.5956   3.6122   3.6219   3.6431   3.7960   3.8961   3.9396   4.0113
  4.3242   4.3260   4.4416   4.4606   4.5106   4.5957   4.6534   4.6606
  4.9970   5.0093   5.0099   5.0323   5.0416   5.0464   5.0610   5.0739
  5.1016   5.1070   5.1408   5.1730   5.1799   5.3044   5.3213   5.4328
  5.6186   5.6724   5.6800   5.7356   5.8023   6.1381   6.2057   6.3934
  6.5317   6.5472   6.7518   6.7581   6.7809   6.8057   6.8266   6.8559
  6.9809   7.1114   7.1447   7.2575   7.2630   7.3504   7.3811   7.5008
  7.5840   7.6017   7.7921   7.8934   7.9682  36.2092  50.0621  50.1640
 50.2097
 --------------------------------------------------------------
 
 -----------------------------------------------------------------
                    Cartesian Multipole Moments
 -----------------------------------------------------------------
    Charge (ESU x 10^10)
                 0.0000
    Dipole Moment (Debye)
         X      -0.0126      Y       0.1261      Z       0.5701
       Tot       0.5840
    Quadrupole Moments (Debye-Ang)
        XX     -22.2648     XY      -0.0116     YY     -23.2468
        XZ       0.0032     YZ      -0.2023     ZZ     -19.6252
    Octopole Moments (Debye-Ang^2)
       XXX      -0.0532    XXY      -0.7032    XYY      -0.0173
       YYY       1.5522    XXZ      -0.2394    XYZ      -0.0055
       YYZ      -0.6518    XZZ      -0.0016    YZZ      -0.2060
       ZZZ       0.2672
    Hexadecapole Moments (Debye-Ang^3)
      XXXX     -78.3300   XXXY      -0.1993   XXYY     -28.7131
      XYYY      -0.1960   YYYY     -90.6943   XXXZ      -0.0160
      XXYZ      -0.7150   XYYZ      -0.0055   YYYZ       0.1372
      XXZZ     -16.0177   XYZZ      -0.0626   YYZZ     -17.4062
      XZZZ      -0.0236   YZZZ       0.0041   ZZZZ     -16.4701
 -----------------------------------------------------------------
Archival summary:
1\1\centos77-c2\SP\ProcedureUnspecified\BasisUnspecified\31(2)\shihchen\SunJul1220:22:402020SunJul1220:22:402020\0\\#,ProcedureUnspecified,BasisUnspecified,\\0,2\N\O,1,1.19371\O,1,1.24094,2,117.525\O,1,1.24128,2,118.492,3,-129.049,0\\\@

 Total job time:  14.48s(wall), 71.94s(cpu) 
 Sun Jul 12 20:22:40 2020

        *************************************************************
        *                                                           *
        *  Thank you very much for using Q-Chem.  Have a nice day.  *
        *                                                           *
        *************************************************************


