                  Welcome to Q-Chem
     A Quantum Leap Into The Future Of Chemistry


 Q-Chem 5.3 (devel), Q-Chem, Inc., Pleasanton, CA (2020)

 Yihan Shao,  Zhengting Gan,  E. Epifanovsky,  A. T. B. Gilbert,  M. Wormit,  
 J. Kussmann,  A. W. Lange,  A. Behn,  Jia Deng,  Xintian Feng,  D. Ghosh,  
 M. Goldey,  P. R. Horn,  L. D. Jacobson,  I. Kaliman,  T. Kus,  A. Landau,  
 Jie Liu,  E. I. Proynov,  R. M. Richard,  R. P. Steele,  E. J. Sundstrom,  
 H. L. Woodcock III,  P. M. Zimmerman,  D. Zuev,  B. Alam,  B. Albrecht,  
 E. Alguire,  S. A. Baeppler,  D. Barton,  Z. Benda,  Y. A. Bernard,  
 E. J. Berquist,  K. B. Bravaya,  H. Burton,  K. Carter-Fenk,  D. Casanova,  
 Chun-Min Chang,  Yunqing Chen,  A. Chien,  K. D. Closser,  M. P. Coons,  
 S. Coriani,  S. Dasgupta,  A. L. Dempwolff,  M. Diedenhofen,  Hainam Do,  
 R. G. Edgar,  Po-Tung Fang,  S. Faraji,  S. Fatehi,  Qingguo Feng,  
 J. Fosso-Tande,  J. Gayvert,  Qinghui Ge,  A. Ghysels,  G. Gidofalvi,  
 J. Gomes,  J. Gonthier,  A. Gunina,  D. Hait,  M. W. D. Hanson-Heine,  
 P. H. P. Harbach,  A. W. Hauser,  M. F. Herbst,  J. E. Herr,  
 E. G. Hohenstein,  Z. C. Holden,  Kerwin Hui,  B. C. Huynh,  T.-C. Jagau,  
 Hyunjun Ji,  B. Kaduk,  K. Khistyaev,  Jaehoon Kim,  P. Klunzinger,  K. Koh,  
 D. Kosenkov,  L. Koulias,  T. Kowalczyk,  C. M. Krauter,  A. Kunitsa,  
 Ka Un Lao,  A. Laurent,  K. V. Lawler,  Joonho Lee,  D. Lefrancois,  
 S. Lehtola,  D. S. Levine,  Yi-Pei Li,  You-Sheng Lin,  Fenglai Liu,  
 Kuan-Yu Liu,  E. Livshits,  M. Loipersberger,  A. Luenser,  P. Manohar,  
 E. Mansoor,  S. F. Manzer,  Shan-Ping Mao,  Yuezhi Mao,  N. Mardirossian,  
 A. V. Marenich,  T. Markovich,  L. A. Martinez-Martinez,  S. A. Maurer,  
 N. J. Mayhall,  S. C. McKenzie,  J.-M. Mewes,  P. Morgante,  A. F. Morrison,  
 J. W. Mullinax,  K. Nanda,  T. S. Nguyen-Beck,  R. Olivares-Amaya,  
 K. J. Oosterbaan,  J. A. Parkhill,  S. K. Paul,  F. Pavosevic,  Zheng Pei,  
 T. M. Perrine,  F. Plasser,  P. Pokhilko,  S. Prager,  A. Prociuk,  
 E. Ramos,  B. Rana,  D. R. Rehn,  F. Rob,  M. Scheurer,  M. Schneider,  
 N. Sergueev,  S. M. Sharada,  S. Sharma,  D. W. Small,  T. Stauch,  
 C. J. Stein,  T. Stein,  Yu-Chuan Su,  S. P. Veccham,  Zhen Tao,  
 A. J. W. Thom,  A. Tkatchenko,  T. Tsuchimochi,  N. M. Tubman,  L. Vogt,  
 M. L. Vidal,  O. Vydrov,  M. A. Watson,  J. Wenzel,  M. de Wergifosse,  
 T. A. Wesolowski,  A. White,  J. Witte,  A. Yamada,  Jun Yang,  K. Yao,  
 S. Yeganeh,  S. R. Yost,  Zhi-Qiang You,  A. Zech,  Igor Ying Zhang,  
 Xing Zhang,  Yan Zhao,  Ying Zhu,  B. R. Brooks,  G. K. L. Chan,  
 C. J. Cramer,  M. S. Gordon,  W. J. Hehre,  A. Klamt,  M. W. Schmidt,  
 C. D. Sherrill,  D. G. Truhlar,  A. Aspuru-Guzik,  R. Baer,  A. T. Bell,  
 N. A. Besley,  Jeng-Da Chai,  A. E. DePrince, III,  R. A. DiStasio Jr.,  
 A. Dreuw,  B. D. Dunietz,  T. R. Furlani,  Chao-Ping Hsu,  Yousung Jung,  
 Jing Kong,  D. S. Lambrecht,  WanZhen Liang,  C. Ochsenfeld,  
 V. A. Rassolov,  L. V. Slipchenko,  J. E. Subotnik,  T. Van Voorhis,  
 J. M. Herbert,  A. I. Krylov,  P. M. W. Gill,  M. Head-Gordon

 Contributors to earlier versions of Q-Chem not listed above: 
 R. D. Adamson,  B. Austin,  J. Baker,  G. J. O. Beran,  K. Brandhorst,  
 S. T. Brown,  E. F. C. Byrd,  A. K. Chakraborty,  C.-L. Cheng,  
 Siu Hung Chien,  D. M. Chipman,  D. L. Crittenden,  H. Dachsel,  
 R. J. Doerksen,  A. D. Dutoi,  L. Fusti-Molnar,  W. A. Goddard III,  
 A. Golubeva-Zadorozhnaya,  S. R. Gwaltney,  G. Hawkins,  A. Heyden,  
 S. Hirata,  G. Kedziora,  F. J. Keil,  C. Kelley,  Jihan Kim,  R. A. King,  
 R. Z. Khaliullin,  P. P. Korambath,  W. Kurlancheek,  A. M. Lee,  M. S. Lee,  
 S. V. Levchenko,  Ching Yeh Lin,  D. Liotard,  R. C. Lochan,  I. Lotan,  
 P. E. Maslen,  N. Nair,  D. P. O'Neill,  D. Neuhauser,  E. Neuscamman,  
 C. M. Oana,  R. Olson,  B. Peters,  R. Peverati,  P. A. Pieniazek,  
 Y. M. Rhee,  J. Ritchie,  M. A. Rohrdanz,  E. Rosta,  N. J. Russ,  
 H. F. Schaefer III,  N. E. Schultz,  N. Shenvi,  A. C. Simmonett,  A. Sodt,  
 D. Stuck,  K. S. Thanthiriwatte,  V. Vanovschi,  Tao Wang,  A. Warshel,  
 C. F. Williams,  Q. Wu,  X. Xu,  W. Zhang

 Please cite Q-Chem as follows:
 Y. Shao et al., Mol. Phys. 113, 184-215 (2015)
 DOI: 10.1080/00268976.2014.952696

 Q-Chem 5.3.0 for Intel X86 EM64T Linux

 Parts of Q-Chem use Armadillo 9.800.1 (Horizon Scraper).
 http://arma.sourceforge.net/

 Q-Chem begins on Sun Jul 12 20:27:09 2020  

Host: centos77-c2
0

     Scratch files written to /tmp/28905.centos77-h1/qchem123082//
Processing $rem in /opt/qchem-5.3.0-intel2020u1//config/preferences:
Processing $rem in /home/shihchengli/.qchemrc:

Checking the input file for inconsistencies... 	...done.

--------------------------------------------------------------
User input:
--------------------------------------------------------------
$rem
   JOBTYPE  sp
   EXCHANGE   omegaB97X-D
   BASIS   6-311+G(2df,2pd)
   UNRESTRICTED   True
   max_scf_cycles   250
   geom_opt_max_cycles   1500
   basis2 6-31G*
   scf_algorithm rca_diis
   SYM_IGNORE  TRUE
   print_input   true
   geom_opt_dmax   80
   pop_mulliken false
   XC_GRID 000075000302
$end

$molecule
0 2
N       0.0002589028     -0.0832303025     -0.0000000000
O       0.0002807368     -1.3178004303     0.0000000000
O       -1.1207251910     0.6989223126     0.0000000000
O       1.1201858333     0.6981803423     0.0000000000
$end
--------------------------------------------------------------
 ----------------------------------------------------------------
             Standard Nuclear Orientation (Angstroms)
    I     Atom           X                Y                Z
 ----------------------------------------------------------------
    1      N       0.0002589028    -0.0832303025     0.0000000000
    2      O       0.0002807368    -1.3178004303     0.0000000000
    3      O      -1.1207251910     0.6989223126     0.0000000000
    4      O       1.1201858333     0.6981803423     0.0000000000
 ----------------------------------------------------------------
 Nuclear Repulsion Energy =         111.86055886 hartrees
 There are       16 alpha and       15 beta electrons
 Requested basis set is 6-311+G(2df,2pd)
 There are 32 shells and 136 basis functions

 Total QAlloc Memory Limit   2000 MB
 Mega-Array Size       188 MB
 MEM_STATIC part       192 MB

                       Distance Matrix (Angstroms)
             N (  1)   O (  2)   O (  3)
   O (  2)  1.234570
   O (  3)  1.366883  2.307342
   O (  4)  1.365591  2.306158  2.240911
 
 A cutoff of  1.0D-09 yielded    506 shell pairs
 There are      9391 function pairs (     12435 Cartesian)
 Smallest overlap matrix eigenvalue = 1.20E-03

 Scale SEOQF with 1.000000e-01/1.000000e-01/1.000000e-01

 Standard Electronic Orientation quadrupole field applied
 Nucleus-field energy     =     0.0000000023 hartrees
 Requested basis set is 6-31G(d)
 There are 16 shells and 56 basis functions
 A cutoff of  1.0D-09 yielded    133 shell pairs
 There are      1681 function pairs (      1935 Cartesian)
 Smallest overlap matrix eigenvalue = 7.13E-03
 Guess from superposition of atomic densities
 Warning:  Energy on first SCF cycle will be non-variational
 SAD guess density has 31.000000 electrons
 Long-range K will be added via erf
 Coulomb attenuation parameter = 0.2 bohr**(-1)
 An unrestricted hybrid HF-DFT SCF calculation will be
 performed using Relaxed Constraint Minimization + Pulay DIIS
 Exchange:     0.2220 Hartree-Fock + 1.0000 wB97X-D + LR-HF
 Correlation:  1.0000 wB97X-D
 Using Euler-Maclaurin-Lebedev (75,302) quadrature formula
 Dispersion:   Grimme D
 SCF converges when DIIS error is below 1.0E-04
 using 6 threads for integral computing
 -------------------------------------------------------
 OpenMP Integral computing Module                
 Release: version 1.0, May 2013, Q-Chem Inc. Pittsburgh 
 -------------------------------------------------------
 using 6 threads for integral computing
 -------------------------------------------------------
 OpenMP Integral computing Module                
 Release: version 1.0, May 2013, Q-Chem Inc. Pittsburgh 
 -------------------------------------------------------
 ---------------------------------------
  Cycle       Energy         DIIS Error
 ---------------------------------------
    1    -280.4237241992      9.16E-02
    2    -279.8436273685      2.77E-02
    3    -279.9409181748      5.45E-03
    4    -280.0743841185      6.70E-03
    5    -280.0798003686      1.13E-03
    6    -280.0872759150      1.37E-03
    7    -280.0875910381      2.34E-04 Done RCA. Switching to DIIS
    8    -280.0882354401      1.83E-04
    9    -280.0885152812      1.19E-04
   10    -280.0886061300      1.05E-04
   11    -280.0886438531      2.40E-05 Convergence criterion met
 ---------------------------------------
 <S^2> = 0.7606
 SCF time:  CPU 14.35 s  wall 2.59 s
 SCF   energy in the small basis set = -280.08864385
 Total energy in the small basis set = -280.08864385
 ----------------------------------------------------
  Cycle       Energy    
 ----------------------------------------------------
    1     -28.1600243626     -2.82E+01
 Long-range K will be added via erf
 Coulomb attenuation parameter = 0.2 bohr**(-1)
 An unrestricted hybrid HF-DFT SCF calculation will be
 performed using Relaxed Constraint Minimization + Pulay DIIS
 Exchange:     0.2220 Hartree-Fock + 1.0000 wB97X-D + LR-HF
 Correlation:  1.0000 wB97X-D
 Using Euler-Maclaurin-Lebedev (75,302) quadrature formula
 Dispersion:   Grimme D
 SCF converges when DIIS error is below 1.0E-05
 Basis2 calculation detected. Using small basis as guess for larger.
 SCFMinFind is unable to tell whether the solution found is close.
 Resetting ReadMinima to 0 and attempting to follow guess.
 SCFMinFind following SCF Guess.
 using 6 threads for integral computing
 -------------------------------------------------------
 OpenMP Integral computing Module                
 Release: version 1.0, May 2013, Q-Chem Inc. Pittsburgh 
 -------------------------------------------------------
 using 6 threads for integral computing
 -------------------------------------------------------
 OpenMP Integral computing Module                
 Release: version 1.0, May 2013, Q-Chem Inc. Pittsburgh 
 -------------------------------------------------------
 ---------------------------------------
  Cycle       Energy         DIIS Error
 ---------------------------------------
    1    -280.1494377578      9.97E-03
    2    -280.1506916922      5.43E-03
    3    -280.1663654569      1.53E-03
    4    -280.1881426496      1.40E-03
    5    -280.1901373635      2.00E-04 Done RCA. Switching to DIIS
    6    -280.1933100113      2.16E-04
    7    -280.1936209603      5.96E-05
    8    -280.1937240687      6.57E-05
    9    -280.1938378141      2.80E-05
   10    -280.1938712806      8.22E-06 Convergence criterion met
 ---------------------------------------
 <S^2> = 0.7626
 SCF time:  CPU 43.59 s  wall 8.15 s
 SCF   energy in the final basis set = -280.19387128
 Total energy in the final basis set = -280.19387128
 
 --------------------------------------------------------------
 
                    Orbital Energies (a.u.)
 --------------------------------------------------------------
 
 Alpha MOs
 -- Occupied --
-19.4021 -19.4015 -19.3816 -14.7854  -1.3956  -1.2233  -1.1814  -0.8123
 -0.6970  -0.6915  -0.6873  -0.5416  -0.5094  -0.4833  -0.4812  -0.4692
 -- Virtual --
 -0.0708   0.0605   0.1242   0.1364   0.1441   0.1626   0.1776   0.2377
  0.2444   0.2585   0.2595   0.2782   0.3224   0.3247   0.3398   0.3398
  0.3412   0.3787   0.4395   0.4452   0.7640   0.8110   0.8667   0.8705
  0.9490   1.0025   1.0069   1.0583   1.0654   1.0674   1.0834   1.1046
  1.1153   1.1507   1.1681   1.3454   1.3828   1.4585   1.4878   1.5139
  1.5316   1.5756   1.5911   1.6066   1.7097   1.7141   1.8272   1.8635
  1.8856   2.1171   2.2333   2.3395   2.3490   2.4372   2.5646   2.6069
  3.5884   3.6321   3.6569   3.6571   3.7087   3.8494   3.8697   4.0292
  4.1405   4.3534   4.5564   4.5995   4.6895   4.7166   4.7645   4.9684
  4.9821   5.0048   5.0152   5.0157   5.0181   5.0211   5.0308   5.0323
  5.0675   5.0684   5.0965   5.1145   5.1518   5.1592   5.2799   5.3052
  5.3637   5.5509   5.5710   5.7644   5.7975   5.8598   5.8845   6.0979
  6.4112   6.4157   6.7060   6.7139   6.7209   6.7573   6.7673   6.7863
  6.8012   6.9827   7.1055   7.1162   7.1710   7.2338   7.2912   7.2941
  7.4008   7.6405   7.8129   7.9069  35.7595  49.9265  49.9796  50.1209
 
 Beta MOs
 -- Occupied --
-19.3886 -19.3882 -19.3813 -14.7864  -1.3881  -1.2053  -1.1447  -0.7950
 -0.6861  -0.6806  -0.6750  -0.4739  -0.4715  -0.4616  -0.4443
 -- Virtual --
 -0.1788  -0.0688   0.0674   0.1302   0.1374   0.1441   0.1624   0.1831
  0.2386   0.2447   0.2578   0.2598   0.2827   0.3237   0.3243   0.3390
  0.3396   0.3418   0.3908   0.4422   0.4451   0.7634   0.8139   0.8701
  0.8805   0.9507   1.0046   1.0090   1.0688   1.0695   1.0755   1.0895
  1.1112   1.1182   1.1712   1.1784   1.3483   1.3973   1.4806   1.5053
  1.5157   1.5578   1.5807   1.6040   1.6181   1.7178   1.7226   1.8540
  1.8740   1.8888   2.1206   2.2371   2.3491   2.3604   2.4401   2.5769
  2.6151   3.5885   3.6336   3.6555   3.6585   3.7086   3.8581   3.8690
  4.0343   4.1455   4.3556   4.5627   4.6020   4.6993   4.7143   4.7647
  4.9921   5.0121   5.0230   5.0344   5.0405   5.0475   5.0511   5.0586
  5.0666   5.0834   5.0844   5.1160   5.1251   5.1780   5.1860   5.3024
  5.3109   5.3671   5.5600   5.5932   5.7803   5.8047   5.8670   5.9102
  6.1062   6.4160   6.4215   6.7405   6.7497   6.7673   6.7871   6.8017
  6.8068   6.8172   7.0201   7.1193   7.1309   7.1729   7.2563   7.3047
  7.3304   7.4190   7.6467   7.8264   7.9134  35.7584  49.9398  49.9928
 50.1211
 --------------------------------------------------------------
 
 -----------------------------------------------------------------
                    Cartesian Multipole Moments
 -----------------------------------------------------------------
    Charge (ESU x 10^10)
                -0.0000
    Dipole Moment (Debye)
         X      -0.0071      Y      -0.1508      Z       0.0000
       Tot       0.1510
    Quadrupole Moments (Debye-Ang)
        XX     -22.2246     XY      -0.0037     YY     -23.0509
        XZ       0.0000     YZ       0.0000     ZZ     -20.5767
    Octopole Moments (Debye-Ang^2)
       XXX      -0.0191    XXY      -0.4057    XYY      -0.0035
       YYY       0.5613    XXZ       0.0000    XYZ      -0.0000
       YYZ       0.0000    XZZ       0.0023    YZZ      -0.6556
       ZZZ       0.0000
    Hexadecapole Moments (Debye-Ang^3)
      XXXX     -93.8905   XXXY       0.0213   XXYY     -33.3445
      XYYY       0.0132   YYYY    -103.2194   XXXZ       0.0000
      XXYZ       0.0000   XYYZ      -0.0000   YYYZ      -0.0000
      XXZZ     -19.3309   XYZZ       0.0098   YYZZ     -19.9360
      XZZZ       0.0000   YZZZ       0.0000   ZZZZ     -15.8372
 -----------------------------------------------------------------
Archival summary:
1\1\centos77-c2\SP\ProcedureUnspecified\BasisUnspecified\31(2)\shihchen\SunJul1220:27:222020SunJul1220:27:222020\0\\#,ProcedureUnspecified,BasisUnspecified,\\0,2\N\O,1,1.23457\O,1,1.36559,2,124.904\O,1,1.36688,2,124.906,3,-180,0\\\@

 Total job time:  12.66s(wall), 61.67s(cpu) 
 Sun Jul 12 20:27:22 2020

        *************************************************************
        *                                                           *
        *  Thank you very much for using Q-Chem.  Have a nice day.  *
        *                                                           *
        *************************************************************


