                  Welcome to Q-Chem
     A Quantum Leap Into The Future Of Chemistry


 Q-Chem 5.3 (devel), Q-Chem, Inc., Pleasanton, CA (2020)

 Yihan Shao,  Zhengting Gan,  E. Epifanovsky,  A. T. B. Gilbert,  M. Wormit,  
 J. Kussmann,  A. W. Lange,  A. Behn,  Jia Deng,  Xintian Feng,  D. Ghosh,  
 M. Goldey,  P. R. Horn,  L. D. Jacobson,  I. Kaliman,  T. Kus,  A. Landau,  
 Jie Liu,  E. I. Proynov,  R. M. Richard,  R. P. Steele,  E. J. Sundstrom,  
 H. L. Woodcock III,  P. M. Zimmerman,  D. Zuev,  B. Alam,  B. Albrecht,  
 E. Alguire,  S. A. Baeppler,  D. Barton,  Z. Benda,  Y. A. Bernard,  
 E. J. Berquist,  K. B. Bravaya,  H. Burton,  K. Carter-Fenk,  D. Casanova,  
 Chun-Min Chang,  Yunqing Chen,  A. Chien,  K. D. Closser,  M. P. Coons,  
 S. Coriani,  S. Dasgupta,  A. L. Dempwolff,  M. Diedenhofen,  Hainam Do,  
 R. G. Edgar,  Po-Tung Fang,  S. Faraji,  S. Fatehi,  Qingguo Feng,  
 J. Fosso-Tande,  J. Gayvert,  Qinghui Ge,  A. Ghysels,  G. Gidofalvi,  
 J. Gomes,  J. Gonthier,  A. Gunina,  D. Hait,  M. W. D. Hanson-Heine,  
 P. H. P. Harbach,  A. W. Hauser,  M. F. Herbst,  J. E. Herr,  
 E. G. Hohenstein,  Z. C. Holden,  Kerwin Hui,  B. C. Huynh,  T.-C. Jagau,  
 Hyunjun Ji,  B. Kaduk,  K. Khistyaev,  Jaehoon Kim,  P. Klunzinger,  K. Koh,  
 D. Kosenkov,  L. Koulias,  T. Kowalczyk,  C. M. Krauter,  A. Kunitsa,  
 Ka Un Lao,  A. Laurent,  K. V. Lawler,  Joonho Lee,  D. Lefrancois,  
 S. Lehtola,  D. S. Levine,  Yi-Pei Li,  You-Sheng Lin,  Fenglai Liu,  
 Kuan-Yu Liu,  E. Livshits,  M. Loipersberger,  A. Luenser,  P. Manohar,  
 E. Mansoor,  S. F. Manzer,  Shan-Ping Mao,  Yuezhi Mao,  N. Mardirossian,  
 A. V. Marenich,  T. Markovich,  L. A. Martinez-Martinez,  S. A. Maurer,  
 N. J. Mayhall,  S. C. McKenzie,  J.-M. Mewes,  P. Morgante,  A. F. Morrison,  
 J. W. Mullinax,  K. Nanda,  T. S. Nguyen-Beck,  R. Olivares-Amaya,  
 K. J. Oosterbaan,  J. A. Parkhill,  S. K. Paul,  F. Pavosevic,  Zheng Pei,  
 T. M. Perrine,  F. Plasser,  P. Pokhilko,  S. Prager,  A. Prociuk,  
 E. Ramos,  B. Rana,  D. R. Rehn,  F. Rob,  M. Scheurer,  M. Schneider,  
 N. Sergueev,  S. M. Sharada,  S. Sharma,  D. W. Small,  T. Stauch,  
 C. J. Stein,  T. Stein,  Yu-Chuan Su,  S. P. Veccham,  Zhen Tao,  
 A. J. W. Thom,  A. Tkatchenko,  T. Tsuchimochi,  N. M. Tubman,  L. Vogt,  
 M. L. Vidal,  O. Vydrov,  M. A. Watson,  J. Wenzel,  M. de Wergifosse,  
 T. A. Wesolowski,  A. White,  J. Witte,  A. Yamada,  Jun Yang,  K. Yao,  
 S. Yeganeh,  S. R. Yost,  Zhi-Qiang You,  A. Zech,  Igor Ying Zhang,  
 Xing Zhang,  Yan Zhao,  Ying Zhu,  B. R. Brooks,  G. K. L. Chan,  
 C. J. Cramer,  M. S. Gordon,  W. J. Hehre,  A. Klamt,  M. W. Schmidt,  
 C. D. Sherrill,  D. G. Truhlar,  A. Aspuru-Guzik,  R. Baer,  A. T. Bell,  
 N. A. Besley,  Jeng-Da Chai,  A. E. DePrince, III,  R. A. DiStasio Jr.,  
 A. Dreuw,  B. D. Dunietz,  T. R. Furlani,  Chao-Ping Hsu,  Yousung Jung,  
 Jing Kong,  D. S. Lambrecht,  WanZhen Liang,  C. Ochsenfeld,  
 V. A. Rassolov,  L. V. Slipchenko,  J. E. Subotnik,  T. Van Voorhis,  
 J. M. Herbert,  A. I. Krylov,  P. M. W. Gill,  M. Head-Gordon

 Contributors to earlier versions of Q-Chem not listed above: 
 R. D. Adamson,  B. Austin,  J. Baker,  G. J. O. Beran,  K. Brandhorst,  
 S. T. Brown,  E. F. C. Byrd,  A. K. Chakraborty,  C.-L. Cheng,  
 Siu Hung Chien,  D. M. Chipman,  D. L. Crittenden,  H. Dachsel,  
 R. J. Doerksen,  A. D. Dutoi,  L. Fusti-Molnar,  W. A. Goddard III,  
 A. Golubeva-Zadorozhnaya,  S. R. Gwaltney,  G. Hawkins,  A. Heyden,  
 S. Hirata,  G. Kedziora,  F. J. Keil,  C. Kelley,  Jihan Kim,  R. A. King,  
 R. Z. Khaliullin,  P. P. Korambath,  W. Kurlancheek,  A. M. Lee,  M. S. Lee,  
 S. V. Levchenko,  Ching Yeh Lin,  D. Liotard,  R. C. Lochan,  I. Lotan,  
 P. E. Maslen,  N. Nair,  D. P. O'Neill,  D. Neuhauser,  E. Neuscamman,  
 C. M. Oana,  R. Olson,  B. Peters,  R. Peverati,  P. A. Pieniazek,  
 Y. M. Rhee,  J. Ritchie,  M. A. Rohrdanz,  E. Rosta,  N. J. Russ,  
 H. F. Schaefer III,  N. E. Schultz,  N. Shenvi,  A. C. Simmonett,  A. Sodt,  
 D. Stuck,  K. S. Thanthiriwatte,  V. Vanovschi,  Tao Wang,  A. Warshel,  
 C. F. Williams,  Q. Wu,  X. Xu,  W. Zhang

 Please cite Q-Chem as follows:
 Y. Shao et al., Mol. Phys. 113, 184-215 (2015)
 DOI: 10.1080/00268976.2014.952696

 Q-Chem 5.3.0 for Intel X86 EM64T Linux

 Parts of Q-Chem use Armadillo 9.800.1 (Horizon Scraper).
 http://arma.sourceforge.net/

 Q-Chem begins on Sun Jul 12 20:18:32 2020  

Host: centos77-c2
0

     Scratch files written to /tmp/28905.centos77-h1/qchem121158//
Processing $rem in /opt/qchem-5.3.0-intel2020u1//config/preferences:
Processing $rem in /home/shihchengli/.qchemrc:

Checking the input file for inconsistencies... 	...done.

--------------------------------------------------------------
User input:
--------------------------------------------------------------
$rem
   JOBTYPE  sp
   EXCHANGE   omegaB97X-D
   BASIS   6-311+G(2df,2pd)
   UNRESTRICTED   True
   max_scf_cycles   250
   geom_opt_max_cycles   1500
   basis2 6-31G*
   scf_algorithm rca_diis
   SYM_IGNORE  TRUE
   print_input   true
   geom_opt_dmax   80
   pop_mulliken false
   XC_GRID 000075000302
$end

$molecule
0 2
N       0.1034947394     -0.0493240300     -0.0000000000
O       -0.0826841033     -1.2290033946     0.0000000000
O       -1.0387274996     0.5960803930     0.0000000000
O       1.0179171453     0.6783189536     0.0000000000
$end
--------------------------------------------------------------
 ----------------------------------------------------------------
             Standard Nuclear Orientation (Angstroms)
    I     Atom           X                Y                Z
 ----------------------------------------------------------------
    1      N       0.1034947394    -0.0493240300     0.0000000000
    2      O      -0.0826841033    -1.2290033946     0.0000000000
    3      O      -1.0387274996     0.5960803930     0.0000000000
    4      O       1.0179171453     0.6783189536     0.0000000000
 ----------------------------------------------------------------
 Nuclear Repulsion Energy =         121.03079776 hartrees
 There are       16 alpha and       15 beta electrons
 Requested basis set is 6-311+G(2df,2pd)
 There are 32 shells and 136 basis functions

 Total QAlloc Memory Limit   2000 MB
 Mega-Array Size       188 MB
 MEM_STATIC part       192 MB

                       Distance Matrix (Angstroms)
             N (  1)   O (  2)   O (  3)
   O (  2)  1.194281
   O (  3)  1.311952  2.060328
   O (  4)  1.168603  2.202090  2.058288
 
 A cutoff of  1.0D-09 yielded    512 shell pairs
 There are      9503 function pairs (     12563 Cartesian)
 Smallest overlap matrix eigenvalue = 8.91E-04

 Scale SEOQF with 1.000000e-01/1.000000e-01/1.000000e-01

 Standard Electronic Orientation quadrupole field applied
 Nucleus-field energy     =     0.0000000019 hartrees
 Requested basis set is 6-31G(d)
 There are 16 shells and 56 basis functions
 A cutoff of  1.0D-09 yielded    133 shell pairs
 There are      1681 function pairs (      1935 Cartesian)
 Smallest overlap matrix eigenvalue = 4.22E-03
 Guess from superposition of atomic densities
 Warning:  Energy on first SCF cycle will be non-variational
 SAD guess density has 31.000000 electrons
 Long-range K will be added via erf
 Coulomb attenuation parameter = 0.2 bohr**(-1)
 An unrestricted hybrid HF-DFT SCF calculation will be
 performed using Relaxed Constraint Minimization + Pulay DIIS
 Exchange:     0.2220 Hartree-Fock + 1.0000 wB97X-D + LR-HF
 Correlation:  1.0000 wB97X-D
 Using Euler-Maclaurin-Lebedev (75,302) quadrature formula
 Dispersion:   Grimme D
 SCF converges when DIIS error is below 1.0E-04
 using 6 threads for integral computing
 -------------------------------------------------------
 OpenMP Integral computing Module                
 Release: version 1.0, May 2013, Q-Chem Inc. Pittsburgh 
 -------------------------------------------------------
 using 6 threads for integral computing
 -------------------------------------------------------
 OpenMP Integral computing Module                
 Release: version 1.0, May 2013, Q-Chem Inc. Pittsburgh 
 -------------------------------------------------------
 ---------------------------------------
  Cycle       Energy         DIIS Error
 ---------------------------------------
    1    -281.0673273774      1.17E-01
    2    -279.9062353661      2.59E-02
    3    -279.9923325270      3.73E-03
    4    -280.1041232971      2.97E-03
    5    -280.1055875125      7.46E-04 Done RCA. Switching to DIIS
    6    -280.1079492985      6.28E-04
    7    -280.1085360552      4.18E-04
    8    -280.1089603622      1.84E-04
    9    -280.1090351448      1.16E-04
   10    -280.1090533939      1.53E-05 Convergence criterion met
 ---------------------------------------
 <S^2> = 0.7542
 SCF time:  CPU 17.38 s  wall 4.03 s
 SCF   energy in the small basis set = -280.10905339
 Total energy in the small basis set = -280.10905339
 ----------------------------------------------------
  Cycle       Energy    
 ----------------------------------------------------
    1     -28.3946814857     -2.84E+01
 Long-range K will be added via erf
 Coulomb attenuation parameter = 0.2 bohr**(-1)
 An unrestricted hybrid HF-DFT SCF calculation will be
 performed using Relaxed Constraint Minimization + Pulay DIIS
 Exchange:     0.2220 Hartree-Fock + 1.0000 wB97X-D + LR-HF
 Correlation:  1.0000 wB97X-D
 Using Euler-Maclaurin-Lebedev (75,302) quadrature formula
 Dispersion:   Grimme D
 SCF converges when DIIS error is below 1.0E-05
 Basis2 calculation detected. Using small basis as guess for larger.
 SCFMinFind is unable to tell whether the solution found is close.
 Resetting ReadMinima to 0 and attempting to follow guess.
 SCFMinFind following SCF Guess.
 using 6 threads for integral computing
 -------------------------------------------------------
 OpenMP Integral computing Module                
 Release: version 1.0, May 2013, Q-Chem Inc. Pittsburgh 
 -------------------------------------------------------
 using 6 threads for integral computing
 -------------------------------------------------------
 OpenMP Integral computing Module                
 Release: version 1.0, May 2013, Q-Chem Inc. Pittsburgh 
 -------------------------------------------------------
 ---------------------------------------
  Cycle       Energy         DIIS Error
 ---------------------------------------
    1    -280.1643602545      1.02E-02
    2    -280.1442594674      6.96E-03
    3    -280.1710592065      2.11E-03
    4    -280.2078922554      1.32E-03
    5    -280.2122765689      8.73E-04 Done RCA. Switching to DIIS
    6    -280.2150475859      1.38E-03
    7    -280.2186033061      1.60E-04
    8    -280.2188683296      6.45E-05
    9    -280.2189846014      4.01E-05
   10    -280.2190035879      8.83E-06 Convergence criterion met
 ---------------------------------------
 <S^2> = 0.7553
 SCF time:  CPU 42.76 s  wall 8.33 s
 SCF   energy in the final basis set = -280.21900359
 Total energy in the final basis set = -280.21900359
 
 --------------------------------------------------------------
 
                    Orbital Energies (a.u.)
 --------------------------------------------------------------
 
 Alpha MOs
 -- Occupied --
-19.4028 -19.3632 -19.3610 -14.7831  -1.4780  -1.2858  -1.2186  -0.7880
 -0.7396  -0.7187  -0.6982  -0.5739  -0.4937  -0.4898  -0.4798  -0.4581
 -- Virtual --
 -0.0197   0.0858   0.1374   0.1391   0.1573   0.1979   0.2346   0.2444
  0.2540   0.2585   0.2597   0.3096   0.3246   0.3318   0.3490   0.3524
  0.3708   0.4339   0.4444   0.5440   0.7594   0.7690   0.8791   0.9025
  0.9513   0.9903   1.0213   1.0505   1.0529   1.0544   1.0748   1.1056
  1.1288   1.1613   1.1817   1.3475   1.3640   1.4747   1.4843   1.5442
  1.5648   1.5947   1.5995   1.6420   1.7265   1.9045   1.9616   1.9948
  2.0053   2.1882   2.3631   2.4014   2.4842   2.5380   2.6557   2.8009
  3.6236   3.6368   3.6831   3.6981   3.7006   3.9316   4.0386   4.1519
  4.3304   4.4322   4.4472   4.4480   4.5962   4.6312   4.6823   4.9702
  4.9714   4.9766   4.9889   5.0241   5.0300   5.0347   5.0661   5.0853
  5.0940   5.1133   5.1432   5.2017   5.2552   5.3434   5.3906   5.4178
  5.5951   5.6062   5.7131   5.8426   6.1015   6.2141   6.4004   6.5184
  6.6815   6.7047   6.7467   6.7672   6.7925   6.8311   6.8499   7.0458
  7.1213   7.1445   7.1459   7.2370   7.2877   7.3059   7.3546   7.4809
  7.7508   7.8718   7.9873   8.4616  36.2107  49.9818  50.2389  50.2877
 
 Beta MOs
 -- Occupied --
-19.3835 -19.3600 -19.3567 -14.7839  -1.4685  -1.2771  -1.1764  -0.7686
 -0.7374  -0.6987  -0.6823  -0.4833  -0.4769  -0.4694  -0.4587
 -- Virtual --
 -0.1493  -0.0171   0.0861   0.1377   0.1388   0.1571   0.2051   0.2346
  0.2470   0.2584   0.2593   0.2612   0.3112   0.3245   0.3334   0.3486
  0.3528   0.3747   0.4354   0.4482   0.5531   0.7589   0.7701   0.8905
  0.9067   0.9535   0.9925   1.0443   1.0515   1.0574   1.0578   1.0816
  1.1093   1.1350   1.1840   1.1848   1.3565   1.3745   1.4948   1.5018
  1.5497   1.5921   1.6016   1.6159   1.6484   1.7312   1.9130   1.9647
  2.0080   2.0345   2.1918   2.3778   2.4047   2.4872   2.5432   2.6680
  2.8072   3.6224   3.6387   3.6850   3.6995   3.7008   3.9411   4.0388
  4.1586   4.3359   4.4404   4.4472   4.4532   4.6048   4.6375   4.6817
  4.9891   4.9987   5.0298   5.0313   5.0338   5.0519   5.0625   5.0941
  5.1034   5.1151   5.1288   5.1617   5.2144   5.2751   5.3656   5.4086
  5.4232   5.6087   5.6205   5.7200   5.8492   6.1113   6.2493   6.4176
  6.5230   6.7263   6.7470   6.7836   6.7904   6.8078   6.8439   6.9006
  7.0485   7.1271   7.1610   7.1796   7.2489   7.2927   7.3278   7.3944
  7.4943   7.7563   7.8812   7.9954   8.4672  36.2099  50.0018  50.2436
 50.2908
 --------------------------------------------------------------
 
 -----------------------------------------------------------------
                    Cartesian Multipole Moments
 -----------------------------------------------------------------
    Charge (ESU x 10^10)
                -0.0000
    Dipole Moment (Debye)
         X      -0.1362      Y       0.2052      Z       0.0000
       Tot       0.2463
    Quadrupole Moments (Debye-Ang)
        XX     -22.4417     XY      -0.3193     YY     -22.8128
        XZ       0.0000     YZ      -0.0000     ZZ     -20.0224
    Octopole Moments (Debye-Ang^2)
       XXX      -0.9056    XXY      -0.7861    XYY      -0.3283
       YYY       1.9266    XXZ       0.0000    XYZ       0.0000
       YYZ       0.0000    XZZ       0.4576    YZZ      -0.0988
       ZZZ      -0.0000
    Hexadecapole Moments (Debye-Ang^3)
      XXXX     -84.6147   XXXY      -2.5924   XXYY     -29.2456
      XYYY      -2.6672   YYYY     -90.7814   XXXZ       0.0000
      XXYZ       0.0000   XYYZ      -0.0000   YYYZ      -0.0000
      XXZZ     -16.8652   XYZZ      -0.6105   YYZZ     -17.6840
      XZZZ       0.0000   YZZZ      -0.0000   ZZZZ     -14.9676
 -----------------------------------------------------------------
Archival summary:
1\1\centos77-c2\SP\ProcedureUnspecified\BasisUnspecified\31(2)\shihchen\SunJul1220:18:462020SunJul1220:18:462020\0\\#,ProcedureUnspecified,BasisUnspecified,\\0,2\N\O,1,1.1686\O,1,1.19428,2,137.479\O,1,1.31195,2,112.021,3,-180,0\\\@

 Total job time:  13.90s(wall), 63.88s(cpu) 
 Sun Jul 12 20:18:46 2020

        *************************************************************
        *                                                           *
        *  Thank you very much for using Q-Chem.  Have a nice day.  *
        *                                                           *
        *************************************************************


