                  Welcome to Q-Chem
     A Quantum Leap Into The Future Of Chemistry


 Q-Chem 5.3 (devel), Q-Chem, Inc., Pleasanton, CA (2020)

 Yihan Shao,  Zhengting Gan,  E. Epifanovsky,  A. T. B. Gilbert,  M. Wormit,  
 J. Kussmann,  A. W. Lange,  A. Behn,  Jia Deng,  Xintian Feng,  D. Ghosh,  
 M. Goldey,  P. R. Horn,  L. D. Jacobson,  I. Kaliman,  T. Kus,  A. Landau,  
 Jie Liu,  E. I. Proynov,  R. M. Richard,  R. P. Steele,  E. J. Sundstrom,  
 H. L. Woodcock III,  P. M. Zimmerman,  D. Zuev,  B. Alam,  B. Albrecht,  
 E. Alguire,  S. A. Baeppler,  D. Barton,  Z. Benda,  Y. A. Bernard,  
 E. J. Berquist,  K. B. Bravaya,  H. Burton,  K. Carter-Fenk,  D. Casanova,  
 Chun-Min Chang,  Yunqing Chen,  A. Chien,  K. D. Closser,  M. P. Coons,  
 S. Coriani,  S. Dasgupta,  A. L. Dempwolff,  M. Diedenhofen,  Hainam Do,  
 R. G. Edgar,  Po-Tung Fang,  S. Faraji,  S. Fatehi,  Qingguo Feng,  
 J. Fosso-Tande,  J. Gayvert,  Qinghui Ge,  A. Ghysels,  G. Gidofalvi,  
 J. Gomes,  J. Gonthier,  A. Gunina,  D. Hait,  M. W. D. Hanson-Heine,  
 P. H. P. Harbach,  A. W. Hauser,  M. F. Herbst,  J. E. Herr,  
 E. G. Hohenstein,  Z. C. Holden,  Kerwin Hui,  B. C. Huynh,  T.-C. Jagau,  
 Hyunjun Ji,  B. Kaduk,  K. Khistyaev,  Jaehoon Kim,  P. Klunzinger,  K. Koh,  
 D. Kosenkov,  L. Koulias,  T. Kowalczyk,  C. M. Krauter,  A. Kunitsa,  
 Ka Un Lao,  A. Laurent,  K. V. Lawler,  Joonho Lee,  D. Lefrancois,  
 S. Lehtola,  D. S. Levine,  Yi-Pei Li,  You-Sheng Lin,  Fenglai Liu,  
 Kuan-Yu Liu,  E. Livshits,  M. Loipersberger,  A. Luenser,  P. Manohar,  
 E. Mansoor,  S. F. Manzer,  Shan-Ping Mao,  Yuezhi Mao,  N. Mardirossian,  
 A. V. Marenich,  T. Markovich,  L. A. Martinez-Martinez,  S. A. Maurer,  
 N. J. Mayhall,  S. C. McKenzie,  J.-M. Mewes,  P. Morgante,  A. F. Morrison,  
 J. W. Mullinax,  K. Nanda,  T. S. Nguyen-Beck,  R. Olivares-Amaya,  
 K. J. Oosterbaan,  J. A. Parkhill,  S. K. Paul,  F. Pavosevic,  Zheng Pei,  
 T. M. Perrine,  F. Plasser,  P. Pokhilko,  S. Prager,  A. Prociuk,  
 E. Ramos,  B. Rana,  D. R. Rehn,  F. Rob,  M. Scheurer,  M. Schneider,  
 N. Sergueev,  S. M. Sharada,  S. Sharma,  D. W. Small,  T. Stauch,  
 C. J. Stein,  T. Stein,  Yu-Chuan Su,  S. P. Veccham,  Zhen Tao,  
 A. J. W. Thom,  A. Tkatchenko,  T. Tsuchimochi,  N. M. Tubman,  L. Vogt,  
 M. L. Vidal,  O. Vydrov,  M. A. Watson,  J. Wenzel,  M. de Wergifosse,  
 T. A. Wesolowski,  A. White,  J. Witte,  A. Yamada,  Jun Yang,  K. Yao,  
 S. Yeganeh,  S. R. Yost,  Zhi-Qiang You,  A. Zech,  Igor Ying Zhang,  
 Xing Zhang,  Yan Zhao,  Ying Zhu,  B. R. Brooks,  G. K. L. Chan,  
 C. J. Cramer,  M. S. Gordon,  W. J. Hehre,  A. Klamt,  M. W. Schmidt,  
 C. D. Sherrill,  D. G. Truhlar,  A. Aspuru-Guzik,  R. Baer,  A. T. Bell,  
 N. A. Besley,  Jeng-Da Chai,  A. E. DePrince, III,  R. A. DiStasio Jr.,  
 A. Dreuw,  B. D. Dunietz,  T. R. Furlani,  Chao-Ping Hsu,  Yousung Jung,  
 Jing Kong,  D. S. Lambrecht,  WanZhen Liang,  C. Ochsenfeld,  
 V. A. Rassolov,  L. V. Slipchenko,  J. E. Subotnik,  T. Van Voorhis,  
 J. M. Herbert,  A. I. Krylov,  P. M. W. Gill,  M. Head-Gordon

 Contributors to earlier versions of Q-Chem not listed above: 
 R. D. Adamson,  B. Austin,  J. Baker,  G. J. O. Beran,  K. Brandhorst,  
 S. T. Brown,  E. F. C. Byrd,  A. K. Chakraborty,  C.-L. Cheng,  
 Siu Hung Chien,  D. M. Chipman,  D. L. Crittenden,  H. Dachsel,  
 R. J. Doerksen,  A. D. Dutoi,  L. Fusti-Molnar,  W. A. Goddard III,  
 A. Golubeva-Zadorozhnaya,  S. R. Gwaltney,  G. Hawkins,  A. Heyden,  
 S. Hirata,  G. Kedziora,  F. J. Keil,  C. Kelley,  Jihan Kim,  R. A. King,  
 R. Z. Khaliullin,  P. P. Korambath,  W. Kurlancheek,  A. M. Lee,  M. S. Lee,  
 S. V. Levchenko,  Ching Yeh Lin,  D. Liotard,  R. C. Lochan,  I. Lotan,  
 P. E. Maslen,  N. Nair,  D. P. O'Neill,  D. Neuhauser,  E. Neuscamman,  
 C. M. Oana,  R. Olson,  B. Peters,  R. Peverati,  P. A. Pieniazek,  
 Y. M. Rhee,  J. Ritchie,  M. A. Rohrdanz,  E. Rosta,  N. J. Russ,  
 H. F. Schaefer III,  N. E. Schultz,  N. Shenvi,  A. C. Simmonett,  A. Sodt,  
 D. Stuck,  K. S. Thanthiriwatte,  V. Vanovschi,  Tao Wang,  A. Warshel,  
 C. F. Williams,  Q. Wu,  X. Xu,  W. Zhang

 Please cite Q-Chem as follows:
 Y. Shao et al., Mol. Phys. 113, 184-215 (2015)
 DOI: 10.1080/00268976.2014.952696

 Q-Chem 5.3.0 for Intel X86 EM64T Linux

 Parts of Q-Chem use Armadillo 9.800.1 (Horizon Scraper).
 http://arma.sourceforge.net/

 Q-Chem begins on Sun Jul 12 20:30:17 2020  

Host: centos77-c2
0

     Scratch files written to /tmp/28905.centos77-h1/qchem123803//
Processing $rem in /opt/qchem-5.3.0-intel2020u1//config/preferences:
Processing $rem in /home/shihchengli/.qchemrc:

Checking the input file for inconsistencies... 	...done.

--------------------------------------------------------------
User input:
--------------------------------------------------------------
$rem
   JOBTYPE  sp
   EXCHANGE   omegaB97X-D
   BASIS   6-311+G(2df,2pd)
   UNRESTRICTED   True
   max_scf_cycles   250
   geom_opt_max_cycles   1500
   basis2 6-31G*
   scf_algorithm rca_diis
   SYM_IGNORE  TRUE
   print_input   true
   geom_opt_dmax   80
   pop_mulliken false
   XC_GRID 000075000302
$end

$molecule
0 2
N       -0.0002119921     -0.1078163535     -0.0000000000
O       0.0001909308     -1.1947292152     0.0000000000
O       -1.0347834889     0.6494409766     0.0000000000
O       1.0348048320     0.6491765141     0.0000000000
$end
--------------------------------------------------------------
 ----------------------------------------------------------------
             Standard Nuclear Orientation (Angstroms)
    I     Atom           X                Y                Z
 ----------------------------------------------------------------
    1      N      -0.0002119921    -0.1078163535     0.0000000000
    2      O       0.0001909308    -1.1947292152     0.0000000000
    3      O      -1.0347834889     0.6494409766     0.0000000000
    4      O       1.0348048320     0.6491765141     0.0000000000
 ----------------------------------------------------------------
 Nuclear Repulsion Energy =         121.88489675 hartrees
 There are       16 alpha and       15 beta electrons
 Requested basis set is 6-311+G(2df,2pd)
 There are 32 shells and 136 basis functions

 Total QAlloc Memory Limit   2000 MB
 Mega-Array Size       188 MB
 MEM_STATIC part       192 MB

                       Distance Matrix (Angstroms)
             N (  1)   O (  2)   O (  3)
   O (  2)  1.086913
   O (  3)  1.282099  2.114742
   O (  4)  1.282302  2.114335  2.069588
 
 A cutoff of  1.0D-09 yielded    513 shell pairs
 There are      9519 function pairs (     12579 Cartesian)
 Smallest overlap matrix eigenvalue = 7.45E-04

 Scale SEOQF with 1.000000e-01/1.000000e-01/1.000000e-01

 Standard Electronic Orientation quadrupole field applied
 Nucleus-field energy     =     0.0000000019 hartrees
 Requested basis set is 6-31G(d)
 There are 16 shells and 56 basis functions
 A cutoff of  1.0D-09 yielded    133 shell pairs
 There are      1681 function pairs (      1935 Cartesian)
 Smallest overlap matrix eigenvalue = 4.15E-03
 Guess from superposition of atomic densities
 Warning:  Energy on first SCF cycle will be non-variational
 SAD guess density has 31.000000 electrons
 Long-range K will be added via erf
 Coulomb attenuation parameter = 0.2 bohr**(-1)
 An unrestricted hybrid HF-DFT SCF calculation will be
 performed using Relaxed Constraint Minimization + Pulay DIIS
 Exchange:     0.2220 Hartree-Fock + 1.0000 wB97X-D + LR-HF
 Correlation:  1.0000 wB97X-D
 Using Euler-Maclaurin-Lebedev (75,302) quadrature formula
 Dispersion:   Grimme D
 SCF converges when DIIS error is below 1.0E-04
 using 6 threads for integral computing
 -------------------------------------------------------
 OpenMP Integral computing Module                
 Release: version 1.0, May 2013, Q-Chem Inc. Pittsburgh 
 -------------------------------------------------------
 using 6 threads for integral computing
 -------------------------------------------------------
 OpenMP Integral computing Module                
 Release: version 1.0, May 2013, Q-Chem Inc. Pittsburgh 
 -------------------------------------------------------
 ---------------------------------------
  Cycle       Energy         DIIS Error
 ---------------------------------------
    1    -281.1584063400      1.22E-01
    2    -279.9046715903      2.53E-02
    3    -279.9871022880      3.40E-03
    4    -280.0912524693      2.50E-03
    5    -280.0921584462      3.96E-04 Done RCA. Switching to DIIS
    6    -280.0934317745      2.63E-04
    7    -280.0935588493      1.20E-04
    8    -280.0936346408      6.18E-05 Convergence criterion met
 ---------------------------------------
 <S^2> = 0.7563
 SCF time:  CPU 10.04 s  wall 1.95 s
 SCF   energy in the small basis set = -280.09363464
 Total energy in the small basis set = -280.09363464
 ----------------------------------------------------
  Cycle       Energy    
 ----------------------------------------------------
    1     -28.4232698137     -2.84E+01
 Long-range K will be added via erf
 Coulomb attenuation parameter = 0.2 bohr**(-1)
 An unrestricted hybrid HF-DFT SCF calculation will be
 performed using Relaxed Constraint Minimization + Pulay DIIS
 Exchange:     0.2220 Hartree-Fock + 1.0000 wB97X-D + LR-HF
 Correlation:  1.0000 wB97X-D
 Using Euler-Maclaurin-Lebedev (75,302) quadrature formula
 Dispersion:   Grimme D
 SCF converges when DIIS error is below 1.0E-05
 Basis2 calculation detected. Using small basis as guess for larger.
 SCFMinFind is unable to tell whether the solution found is close.
 Resetting ReadMinima to 0 and attempting to follow guess.
 SCFMinFind following SCF Guess.
 using 6 threads for integral computing
 -------------------------------------------------------
 OpenMP Integral computing Module                
 Release: version 1.0, May 2013, Q-Chem Inc. Pittsburgh 
 -------------------------------------------------------
 using 6 threads for integral computing
 -------------------------------------------------------
 OpenMP Integral computing Module                
 Release: version 1.0, May 2013, Q-Chem Inc. Pittsburgh 
 -------------------------------------------------------
 ---------------------------------------
  Cycle       Energy         DIIS Error
 ---------------------------------------
    1    -280.1689376692      9.85E-03
    2    -280.1864551214      3.88E-03
    3    -280.1952093773      6.11E-04 Done RCA. Switching to DIIS
    4    -280.2060408152      3.77E-04
    5    -280.2063071430      1.72E-04
    6    -280.2064040902      7.97E-05
    7    -280.2064996485      2.98E-05
    8    -280.2065380728      2.18E-05
    9    -280.2065498976      1.24E-05
   10    -280.2065537816      2.60E-06 Convergence criterion met
 ---------------------------------------
 <S^2> = 0.7580
 SCF time:  CPU 44.72 s  wall 8.43 s
 SCF   energy in the final basis set = -280.20655378
 Total energy in the final basis set = -280.20655378
 
 --------------------------------------------------------------
 
                    Orbital Energies (a.u.)
 --------------------------------------------------------------
 
 Alpha MOs
 -- Occupied --
-19.3753 -19.3751 -19.3723 -14.7811  -1.5078  -1.2927  -1.2057  -0.7842
 -0.7542  -0.7257  -0.7083  -0.5505  -0.5042  -0.4943  -0.4749  -0.4616
 -- Virtual --
 -0.0106   0.0855   0.1368   0.1371   0.1561   0.2144   0.2182   0.2439
  0.2579   0.2580   0.2623   0.3269   0.3300   0.3363   0.3499   0.3501
  0.3570   0.4357   0.4379   0.5928   0.7558   0.7793   0.8847   0.8854
  0.9519   0.9924   1.0390   1.0512   1.0587   1.0704   1.0845   1.0935
  1.1309   1.1580   1.1831   1.3327   1.3775   1.4914   1.5218   1.5406
  1.5722   1.5893   1.5903   1.6425   1.8036   1.8738   1.9710   1.9756
  1.9959   2.2416   2.3649   2.4040   2.4257   2.5895   2.7073   2.8001
  3.6106   3.6392   3.6746   3.6832   3.7411   3.9708   4.0742   4.1341
  4.2842   4.3852   4.3979   4.4400   4.5667   4.6274   4.7557   4.9777
  4.9886   4.9930   5.0074   5.0103   5.0284   5.0384   5.0826   5.1049
  5.1180   5.1257   5.1568   5.1937   5.2008   5.2483   5.4850   5.4909
  5.5270   5.6624   5.7627   5.8490   6.1562   6.2201   6.2830   6.5398
  6.7175   6.7183   6.7422   6.7787   6.7798   6.8252   6.9636   7.0577
  7.1259   7.1831   7.1854   7.1957   7.2282   7.3411   7.5744   7.5756
  7.7653   7.9095   8.1790   8.2829  36.2702  50.0119  50.1267  50.4336
 
 Beta MOs
 -- Occupied --
-19.3715 -19.3620 -19.3619 -14.7819  -1.5029  -1.2727  -1.1729  -0.7671
 -0.7534  -0.7058  -0.6917  -0.4849  -0.4804  -0.4553  -0.4540
 -- Virtual --
 -0.1533  -0.0083   0.0859   0.1367   0.1376   0.1559   0.2161   0.2236
  0.2450   0.2572   0.2625   0.2664   0.3280   0.3289   0.3399   0.3496
  0.3497   0.3627   0.4392   0.4425   0.6014   0.7553   0.7823   0.8884
  0.8924   0.9538   0.9961   1.0401   1.0631   1.0731   1.0740   1.0906
  1.0957   1.1328   1.1859   1.1866   1.3357   1.3935   1.5149   1.5375
  1.5453   1.5764   1.6021   1.6126   1.6548   1.8149   1.8812   1.9788
  1.9796   2.0234   2.2450   2.3689   2.4156   2.4346   2.5922   2.7198
  2.8086   3.6099   3.6406   3.6745   3.6836   3.7433   3.9805   4.0746
  4.1389   4.2887   4.3949   4.3966   4.4471   4.5735   4.6279   4.7662
  4.9942   5.0026   5.0142   5.0337   5.0511   5.0566   5.0747   5.1114
  5.1266   5.1341   5.1374   5.1691   5.1955   5.2330   5.2802   5.5046
  5.5106   5.5316   5.6695   5.7750   5.8567   6.1632   6.2371   6.3166
  6.5478   6.7545   6.7594   6.7630   6.8223   6.8294   6.8310   6.9784
  7.0938   7.1317   7.1958   7.1974   7.1975   7.2378   7.3809   7.5891
  7.5969   7.7727   7.9201   8.1909   8.2857  36.2694  50.0246  50.1394
 50.4343
 --------------------------------------------------------------
 
 -----------------------------------------------------------------
                    Cartesian Multipole Moments
 -----------------------------------------------------------------
    Charge (ESU x 10^10)
                 0.0000
    Dipole Moment (Debye)
         X       0.0013      Y      -0.6514      Z       0.0000
       Tot       0.6514
    Quadrupole Moments (Debye-Ang)
        XX     -22.3958     XY       0.0008     YY     -22.7153
        XZ      -0.0000     YZ       0.0000     ZZ     -19.9725
    Octopole Moments (Debye-Ang^2)
       XXX       0.0047    XXY      -1.2943    XYY       0.0010
       YYY      -0.0377    XXZ       0.0000    XYZ       0.0000
       YYZ       0.0000    XZZ      -0.0003    YZZ      -0.9932
       ZZZ       0.0000
    Hexadecapole Moments (Debye-Ang^3)
      XXXX     -84.3095   XXXY       0.0071   XXYY     -29.0910
      XYYY       0.0072   YYYY     -88.9241   XXXZ       0.0000
      XXYZ       0.0000   XYYZ       0.0000   YYYZ       0.0000
      XXZZ     -17.1990   XYZZ       0.0020   YYZZ     -17.1440
      XZZZ      -0.0000   YZZZ       0.0000   ZZZZ     -14.9487
 -----------------------------------------------------------------
Archival summary:
1\1\centos77-c2\SP\ProcedureUnspecified\BasisUnspecified\31(2)\shihchen\SunJul1220:30:292020SunJul1220:30:292020\0\\#,ProcedureUnspecified,BasisUnspecified,\\0,2\N\O,1,1.08691\O,1,1.2821,2,126.224\O,1,1.2823,2,126.16,3,-180,0\\\@

 Total job time:  12.36s(wall), 58.44s(cpu) 
 Sun Jul 12 20:30:29 2020

        *************************************************************
        *                                                           *
        *  Thank you very much for using Q-Chem.  Have a nice day.  *
        *                                                           *
        *************************************************************


