                  Welcome to Q-Chem
     A Quantum Leap Into The Future Of Chemistry


 Q-Chem 5.3 (devel), Q-Chem, Inc., Pleasanton, CA (2020)

 Yihan Shao,  Zhengting Gan,  E. Epifanovsky,  A. T. B. Gilbert,  M. Wormit,  
 J. Kussmann,  A. W. Lange,  A. Behn,  Jia Deng,  Xintian Feng,  D. Ghosh,  
 M. Goldey,  P. R. Horn,  L. D. Jacobson,  I. Kaliman,  T. Kus,  A. Landau,  
 Jie Liu,  E. I. Proynov,  R. M. Richard,  R. P. Steele,  E. J. Sundstrom,  
 H. L. Woodcock III,  P. M. Zimmerman,  D. Zuev,  B. Alam,  B. Albrecht,  
 E. Alguire,  S. A. Baeppler,  D. Barton,  Z. Benda,  Y. A. Bernard,  
 E. J. Berquist,  K. B. Bravaya,  H. Burton,  K. Carter-Fenk,  D. Casanova,  
 Chun-Min Chang,  Yunqing Chen,  A. Chien,  K. D. Closser,  M. P. Coons,  
 S. Coriani,  S. Dasgupta,  A. L. Dempwolff,  M. Diedenhofen,  Hainam Do,  
 R. G. Edgar,  Po-Tung Fang,  S. Faraji,  S. Fatehi,  Qingguo Feng,  
 J. Fosso-Tande,  J. Gayvert,  Qinghui Ge,  A. Ghysels,  G. Gidofalvi,  
 J. Gomes,  J. Gonthier,  A. Gunina,  D. Hait,  M. W. D. Hanson-Heine,  
 P. H. P. Harbach,  A. W. Hauser,  M. F. Herbst,  J. E. Herr,  
 E. G. Hohenstein,  Z. C. Holden,  Kerwin Hui,  B. C. Huynh,  T.-C. Jagau,  
 Hyunjun Ji,  B. Kaduk,  K. Khistyaev,  Jaehoon Kim,  P. Klunzinger,  K. Koh,  
 D. Kosenkov,  L. Koulias,  T. Kowalczyk,  C. M. Krauter,  A. Kunitsa,  
 Ka Un Lao,  A. Laurent,  K. V. Lawler,  Joonho Lee,  D. Lefrancois,  
 S. Lehtola,  D. S. Levine,  Yi-Pei Li,  You-Sheng Lin,  Fenglai Liu,  
 Kuan-Yu Liu,  E. Livshits,  M. Loipersberger,  A. Luenser,  P. Manohar,  
 E. Mansoor,  S. F. Manzer,  Shan-Ping Mao,  Yuezhi Mao,  N. Mardirossian,  
 A. V. Marenich,  T. Markovich,  L. A. Martinez-Martinez,  S. A. Maurer,  
 N. J. Mayhall,  S. C. McKenzie,  J.-M. Mewes,  P. Morgante,  A. F. Morrison,  
 J. W. Mullinax,  K. Nanda,  T. S. Nguyen-Beck,  R. Olivares-Amaya,  
 K. J. Oosterbaan,  J. A. Parkhill,  S. K. Paul,  F. Pavosevic,  Zheng Pei,  
 T. M. Perrine,  F. Plasser,  P. Pokhilko,  S. Prager,  A. Prociuk,  
 E. Ramos,  B. Rana,  D. R. Rehn,  F. Rob,  M. Scheurer,  M. Schneider,  
 N. Sergueev,  S. M. Sharada,  S. Sharma,  D. W. Small,  T. Stauch,  
 C. J. Stein,  T. Stein,  Yu-Chuan Su,  S. P. Veccham,  Zhen Tao,  
 A. J. W. Thom,  A. Tkatchenko,  T. Tsuchimochi,  N. M. Tubman,  L. Vogt,  
 M. L. Vidal,  O. Vydrov,  M. A. Watson,  J. Wenzel,  M. de Wergifosse,  
 T. A. Wesolowski,  A. White,  J. Witte,  A. Yamada,  Jun Yang,  K. Yao,  
 S. Yeganeh,  S. R. Yost,  Zhi-Qiang You,  A. Zech,  Igor Ying Zhang,  
 Xing Zhang,  Yan Zhao,  Ying Zhu,  B. R. Brooks,  G. K. L. Chan,  
 C. J. Cramer,  M. S. Gordon,  W. J. Hehre,  A. Klamt,  M. W. Schmidt,  
 C. D. Sherrill,  D. G. Truhlar,  A. Aspuru-Guzik,  R. Baer,  A. T. Bell,  
 N. A. Besley,  Jeng-Da Chai,  A. E. DePrince, III,  R. A. DiStasio Jr.,  
 A. Dreuw,  B. D. Dunietz,  T. R. Furlani,  Chao-Ping Hsu,  Yousung Jung,  
 Jing Kong,  D. S. Lambrecht,  WanZhen Liang,  C. Ochsenfeld,  
 V. A. Rassolov,  L. V. Slipchenko,  J. E. Subotnik,  T. Van Voorhis,  
 J. M. Herbert,  A. I. Krylov,  P. M. W. Gill,  M. Head-Gordon

 Contributors to earlier versions of Q-Chem not listed above: 
 R. D. Adamson,  B. Austin,  J. Baker,  G. J. O. Beran,  K. Brandhorst,  
 S. T. Brown,  E. F. C. Byrd,  A. K. Chakraborty,  C.-L. Cheng,  
 Siu Hung Chien,  D. M. Chipman,  D. L. Crittenden,  H. Dachsel,  
 R. J. Doerksen,  A. D. Dutoi,  L. Fusti-Molnar,  W. A. Goddard III,  
 A. Golubeva-Zadorozhnaya,  S. R. Gwaltney,  G. Hawkins,  A. Heyden,  
 S. Hirata,  G. Kedziora,  F. J. Keil,  C. Kelley,  Jihan Kim,  R. A. King,  
 R. Z. Khaliullin,  P. P. Korambath,  W. Kurlancheek,  A. M. Lee,  M. S. Lee,  
 S. V. Levchenko,  Ching Yeh Lin,  D. Liotard,  R. C. Lochan,  I. Lotan,  
 P. E. Maslen,  N. Nair,  D. P. O'Neill,  D. Neuhauser,  E. Neuscamman,  
 C. M. Oana,  R. Olson,  B. Peters,  R. Peverati,  P. A. Pieniazek,  
 Y. M. Rhee,  J. Ritchie,  M. A. Rohrdanz,  E. Rosta,  N. J. Russ,  
 H. F. Schaefer III,  N. E. Schultz,  N. Shenvi,  A. C. Simmonett,  A. Sodt,  
 D. Stuck,  K. S. Thanthiriwatte,  V. Vanovschi,  Tao Wang,  A. Warshel,  
 C. F. Williams,  Q. Wu,  X. Xu,  W. Zhang

 Please cite Q-Chem as follows:
 Y. Shao et al., Mol. Phys. 113, 184-215 (2015)
 DOI: 10.1080/00268976.2014.952696

 Q-Chem 5.3.0 for Intel X86 EM64T Linux

 Parts of Q-Chem use Armadillo 9.800.1 (Horizon Scraper).
 http://arma.sourceforge.net/

 Q-Chem begins on Sun Jul 12 20:27:22 2020  

Host: centos77-c2
0

     Scratch files written to /tmp/28905.centos77-h1/qchem123124//
Processing $rem in /opt/qchem-5.3.0-intel2020u1//config/preferences:
Processing $rem in /home/shihchengli/.qchemrc:

Checking the input file for inconsistencies... 	...done.

--------------------------------------------------------------
User input:
--------------------------------------------------------------
$rem
   JOBTYPE  sp
   EXCHANGE   omegaB97X-D
   BASIS   6-311+G(2df,2pd)
   UNRESTRICTED   True
   max_scf_cycles   250
   geom_opt_max_cycles   1500
   basis2 6-31G*
   scf_algorithm rca_diis
   SYM_IGNORE  TRUE
   print_input   true
   geom_opt_dmax   80
   pop_mulliken false
   XC_GRID 000075000302
$end

$molecule
0 2
N       0.0003878228     -0.0913734563     -0.0000000000
O       0.0003019597     -1.3361592284     0.0000000000
O       -1.1440089472     0.7122386151     0.0000000000
O       1.1433194465     0.7113659916     0.0000000000
$end
--------------------------------------------------------------
 ----------------------------------------------------------------
             Standard Nuclear Orientation (Angstroms)
    I     Atom           X                Y                Z
 ----------------------------------------------------------------
    1      N       0.0003878228    -0.0913734563     0.0000000000
    2      O       0.0003019597    -1.3361592284     0.0000000000
    3      O      -1.1440089472     0.7122386151     0.0000000000
    4      O       1.1433194465     0.7113659916     0.0000000000
 ----------------------------------------------------------------
 Nuclear Repulsion Energy =         109.89876571 hartrees
 There are       16 alpha and       15 beta electrons
 Requested basis set is 6-311+G(2df,2pd)
 There are 32 shells and 136 basis functions

 Total QAlloc Memory Limit   2000 MB
 Mega-Array Size       188 MB
 MEM_STATIC part       192 MB

                       Distance Matrix (Angstroms)
             N (  1)   O (  2)   O (  3)
   O (  2)  1.244786
   O (  3)  1.398369  2.346355
   O (  4)  1.396669  2.344962  2.287329
 
 A cutoff of  1.0D-09 yielded    502 shell pairs
 There are      9301 function pairs (     12315 Cartesian)
 Smallest overlap matrix eigenvalue = 1.22E-03

 Scale SEOQF with 1.000000e-01/1.000000e-01/1.000000e-01

 Standard Electronic Orientation quadrupole field applied
 Nucleus-field energy     =     0.0000000024 hartrees
 Requested basis set is 6-31G(d)
 There are 16 shells and 56 basis functions
 A cutoff of  1.0D-09 yielded    133 shell pairs
 There are      1681 function pairs (      1935 Cartesian)
 Smallest overlap matrix eigenvalue = 7.56E-03
 Guess from superposition of atomic densities
 Warning:  Energy on first SCF cycle will be non-variational
 SAD guess density has 31.000000 electrons
 Long-range K will be added via erf
 Coulomb attenuation parameter = 0.2 bohr**(-1)
 An unrestricted hybrid HF-DFT SCF calculation will be
 performed using Relaxed Constraint Minimization + Pulay DIIS
 Exchange:     0.2220 Hartree-Fock + 1.0000 wB97X-D + LR-HF
 Correlation:  1.0000 wB97X-D
 Using Euler-Maclaurin-Lebedev (75,302) quadrature formula
 Dispersion:   Grimme D
 SCF converges when DIIS error is below 1.0E-04
 using 6 threads for integral computing
 -------------------------------------------------------
 OpenMP Integral computing Module                
 Release: version 1.0, May 2013, Q-Chem Inc. Pittsburgh 
 -------------------------------------------------------
 using 6 threads for integral computing
 -------------------------------------------------------
 OpenMP Integral computing Module                
 Release: version 1.0, May 2013, Q-Chem Inc. Pittsburgh 
 -------------------------------------------------------
 ---------------------------------------
  Cycle       Energy         DIIS Error
 ---------------------------------------
    1    -280.2982477768      8.69E-02
    2    -279.8181515830      2.80E-02
    3    -279.9182100843      5.84E-03
    4    -280.0556213943      7.69E-03
    5    -280.0626726356      1.40E-03
    6    -280.0723158651      1.85E-03
    7    -280.0728190696      2.66E-04 Done RCA. Switching to DIIS
    8    -280.0737910970      2.35E-04
    9    -280.0741245958      1.24E-04
   10    -280.0742167893      1.19E-04
   11    -280.0742779259      2.73E-05 Convergence criterion met
 ---------------------------------------
 <S^2> = 0.7627
 SCF time:  CPU 19.31 s  wall 4.14 s
 SCF   energy in the small basis set = -280.07427793
 Total energy in the small basis set = -280.07427793
 ----------------------------------------------------
  Cycle       Energy    
 ----------------------------------------------------
    1     -28.1170287197     -2.81E+01
 Long-range K will be added via erf
 Coulomb attenuation parameter = 0.2 bohr**(-1)
 An unrestricted hybrid HF-DFT SCF calculation will be
 performed using Relaxed Constraint Minimization + Pulay DIIS
 Exchange:     0.2220 Hartree-Fock + 1.0000 wB97X-D + LR-HF
 Correlation:  1.0000 wB97X-D
 Using Euler-Maclaurin-Lebedev (75,302) quadrature formula
 Dispersion:   Grimme D
 SCF converges when DIIS error is below 1.0E-05
 Basis2 calculation detected. Using small basis as guess for larger.
 SCFMinFind is unable to tell whether the solution found is close.
 Resetting ReadMinima to 0 and attempting to follow guess.
 SCFMinFind following SCF Guess.
 using 6 threads for integral computing
 -------------------------------------------------------
 OpenMP Integral computing Module                
 Release: version 1.0, May 2013, Q-Chem Inc. Pittsburgh 
 -------------------------------------------------------
 using 6 threads for integral computing
 -------------------------------------------------------
 OpenMP Integral computing Module                
 Release: version 1.0, May 2013, Q-Chem Inc. Pittsburgh 
 -------------------------------------------------------
 ---------------------------------------
  Cycle       Energy         DIIS Error
 ---------------------------------------
    1    -280.1337097292      9.97E-03
    2    -280.1337694939      5.53E-03
    3    -280.1505230346      1.46E-03
    4    -280.1733926774      1.40E-03
    5    -280.1753093277      1.79E-04 Done RCA. Switching to DIIS
    6    -280.1785353907      1.61E-04
    7    -280.1787607996      1.19E-04
    8    -280.1788866749      4.54E-05
    9    -280.1790362496      2.40E-05
   10    -280.1790700692      9.44E-06 Convergence criterion met
 ---------------------------------------
 <S^2> = 0.7650
 SCF time:  CPU 43.76 s  wall 8.47 s
 SCF   energy in the final basis set = -280.17907007
 Total energy in the final basis set = -280.17907007
 
 --------------------------------------------------------------
 
                    Orbital Energies (a.u.)
 --------------------------------------------------------------
 
 Alpha MOs
 -- Occupied --
-19.4038 -19.4029 -19.3870 -14.7843  -1.3796  -1.2131  -1.1698  -0.8174
 -0.6911  -0.6882  -0.6766  -0.5387  -0.5083  -0.4816  -0.4807  -0.4704
 -- Virtual --
 -0.0794   0.0425   0.1142   0.1331   0.1426   0.1610   0.1637   0.2370
  0.2444   0.2581   0.2596   0.2696   0.3212   0.3224   0.3370   0.3379
  0.3390   0.3655   0.4402   0.4442   0.7644   0.8150   0.8655   0.8722
  0.9421   1.0037   1.0055   1.0604   1.0664   1.0696   1.0864   1.1034
  1.1162   1.1510   1.1657   1.3413   1.3884   1.4564   1.4858   1.5075
  1.5253   1.5722   1.5934   1.5987   1.6780   1.7006   1.7947   1.8423
  1.8673   2.0859   2.2109   2.3156   2.3469   2.4161   2.5323   2.5670
  3.5732   3.6117   3.6490   3.6580   3.7051   3.8225   3.8517   3.9805
  4.0942   4.3279   4.5990   4.6152   4.7141   4.7381   4.7696   4.9688
  4.9804   4.9965   5.0043   5.0181   5.0210   5.0216   5.0264   5.0318
  5.0594   5.0602   5.0948   5.1074   5.1371   5.1429   5.2428   5.2850
  5.3298   5.5030   5.5751   5.6881   5.7708   5.7895   5.8278   6.0066
  6.3604   6.4015   6.6028   6.7009   6.7181   6.7484   6.7566   6.7634
  6.7944   6.9358   7.0874   7.0977   7.1545   7.1614   7.1898   7.2614
  7.3662   7.5971   7.7679   7.8794  35.6834  49.9111  49.9517  50.0976
 
 Beta MOs
 -- Occupied --
-19.3901 -19.3895 -19.3872 -14.7853  -1.3734  -1.1938  -1.1317  -0.8009
 -0.6763  -0.6760  -0.6726  -0.4732  -0.4725  -0.4589  -0.4390
 -- Virtual --
 -0.1796  -0.0780   0.0533   0.1185   0.1352   0.1419   0.1636   0.1666
  0.2379   0.2447   0.2574   0.2599   0.2726   0.3225   0.3226   0.3371
  0.3388   0.3389   0.3753   0.4429   0.4442   0.7640   0.8191   0.8686
  0.8813   0.9438   1.0054   1.0077   1.0707   1.0708   1.0764   1.0927
  1.1116   1.1183   1.1690   1.1797   1.3436   1.4032   1.4783   1.5038
  1.5083   1.5523   1.5775   1.6069   1.6098   1.6858   1.7082   1.8217
  1.8534   1.8707   2.0892   2.2144   2.3255   2.3582   2.4203   2.5432
  2.5748   3.5732   3.6130   3.6503   3.6564   3.7048   3.8305   3.8507
  3.9856   4.0989   4.3295   4.6051   4.6171   4.7239   4.7355   4.7697
  4.9924   5.0113   5.0164   5.0306   5.0427   5.0437   5.0504   5.0523
  5.0670   5.0745   5.0775   5.1089   5.1232   5.1628   5.1726   5.2665
  5.2903   5.3327   5.5179   5.5927   5.7042   5.7783   5.7965   5.8511
  6.0150   6.3597   6.4113   6.6219   6.7352   6.7654   6.7822   6.7954
  6.7958   6.8032   6.9734   7.1019   7.1140   7.1615   7.1736   7.2043
  7.3026   7.3833   7.6031   7.7831   7.8864  35.6823  49.9247  49.9653
 50.0973
 --------------------------------------------------------------
 
 -----------------------------------------------------------------
                    Cartesian Multipole Moments
 -----------------------------------------------------------------
    Charge (ESU x 10^10)
                 0.0000
    Dipole Moment (Debye)
         X      -0.0120      Y      -0.2345      Z       0.0000
       Tot       0.2348
    Quadrupole Moments (Debye-Ang)
        XX     -22.2113     XY      -0.0062     YY     -23.0194
        XZ      -0.0000     YZ      -0.0000     ZZ     -20.6960
    Octopole Moments (Debye-Ang^2)
       XXX      -0.0326    XXY      -0.3411    XYY      -0.0064
       YYY       0.2901    XXZ       0.0000    XYZ      -0.0000
       YYZ      -0.0000    XZZ       0.0024    YZZ      -0.7602
       ZZZ      -0.0000
    Hexadecapole Moments (Debye-Ang^3)
      XXXX     -96.8258   XXXY       0.0243   XXYY     -34.2723
      XYYY       0.0116   YYYY    -105.7817   XXXZ       0.0000
      XXYZ      -0.0000   XYYZ      -0.0000   YYYZ      -0.0000
      XXZZ     -20.0181   XYZZ       0.0118   YYZZ     -20.4293
      XZZZ       0.0000   YZZZ      -0.0000   ZZZZ     -16.0370
 -----------------------------------------------------------------
Archival summary:
1\1\centos77-c2\SP\ProcedureUnspecified\BasisUnspecified\31(2)\shihchen\SunJul1220:27:372020SunJul1220:27:372020\0\\#,ProcedureUnspecified,BasisUnspecified,\\0,2\N\O,1,1.24479\O,1,1.39667,2,125.086\O,1,1.39837,2,125.073,3,-180,0\\\@

 Total job time:  14.51s(wall), 66.86s(cpu) 
 Sun Jul 12 20:27:37 2020

        *************************************************************
        *                                                           *
        *  Thank you very much for using Q-Chem.  Have a nice day.  *
        *                                                           *
        *************************************************************


