                  Welcome to Q-Chem
     A Quantum Leap Into The Future Of Chemistry


 Q-Chem 5.3 (devel), Q-Chem, Inc., Pleasanton, CA (2020)

 Yihan Shao,  Zhengting Gan,  E. Epifanovsky,  A. T. B. Gilbert,  M. Wormit,  
 J. Kussmann,  A. W. Lange,  A. Behn,  Jia Deng,  Xintian Feng,  D. Ghosh,  
 M. Goldey,  P. R. Horn,  L. D. Jacobson,  I. Kaliman,  T. Kus,  A. Landau,  
 Jie Liu,  E. I. Proynov,  R. M. Richard,  R. P. Steele,  E. J. Sundstrom,  
 H. L. Woodcock III,  P. M. Zimmerman,  D. Zuev,  B. Alam,  B. Albrecht,  
 E. Alguire,  S. A. Baeppler,  D. Barton,  Z. Benda,  Y. A. Bernard,  
 E. J. Berquist,  K. B. Bravaya,  H. Burton,  K. Carter-Fenk,  D. Casanova,  
 Chun-Min Chang,  Yunqing Chen,  A. Chien,  K. D. Closser,  M. P. Coons,  
 S. Coriani,  S. Dasgupta,  A. L. Dempwolff,  M. Diedenhofen,  Hainam Do,  
 R. G. Edgar,  Po-Tung Fang,  S. Faraji,  S. Fatehi,  Qingguo Feng,  
 J. Fosso-Tande,  J. Gayvert,  Qinghui Ge,  A. Ghysels,  G. Gidofalvi,  
 J. Gomes,  J. Gonthier,  A. Gunina,  D. Hait,  M. W. D. Hanson-Heine,  
 P. H. P. Harbach,  A. W. Hauser,  M. F. Herbst,  J. E. Herr,  
 E. G. Hohenstein,  Z. C. Holden,  Kerwin Hui,  B. C. Huynh,  T.-C. Jagau,  
 Hyunjun Ji,  B. Kaduk,  K. Khistyaev,  Jaehoon Kim,  P. Klunzinger,  K. Koh,  
 D. Kosenkov,  L. Koulias,  T. Kowalczyk,  C. M. Krauter,  A. Kunitsa,  
 Ka Un Lao,  A. Laurent,  K. V. Lawler,  Joonho Lee,  D. Lefrancois,  
 S. Lehtola,  D. S. Levine,  Yi-Pei Li,  You-Sheng Lin,  Fenglai Liu,  
 Kuan-Yu Liu,  E. Livshits,  M. Loipersberger,  A. Luenser,  P. Manohar,  
 E. Mansoor,  S. F. Manzer,  Shan-Ping Mao,  Yuezhi Mao,  N. Mardirossian,  
 A. V. Marenich,  T. Markovich,  L. A. Martinez-Martinez,  S. A. Maurer,  
 N. J. Mayhall,  S. C. McKenzie,  J.-M. Mewes,  P. Morgante,  A. F. Morrison,  
 J. W. Mullinax,  K. Nanda,  T. S. Nguyen-Beck,  R. Olivares-Amaya,  
 K. J. Oosterbaan,  J. A. Parkhill,  S. K. Paul,  F. Pavosevic,  Zheng Pei,  
 T. M. Perrine,  F. Plasser,  P. Pokhilko,  S. Prager,  A. Prociuk,  
 E. Ramos,  B. Rana,  D. R. Rehn,  F. Rob,  M. Scheurer,  M. Schneider,  
 N. Sergueev,  S. M. Sharada,  S. Sharma,  D. W. Small,  T. Stauch,  
 C. J. Stein,  T. Stein,  Yu-Chuan Su,  S. P. Veccham,  Zhen Tao,  
 A. J. W. Thom,  A. Tkatchenko,  T. Tsuchimochi,  N. M. Tubman,  L. Vogt,  
 M. L. Vidal,  O. Vydrov,  M. A. Watson,  J. Wenzel,  M. de Wergifosse,  
 T. A. Wesolowski,  A. White,  J. Witte,  A. Yamada,  Jun Yang,  K. Yao,  
 S. Yeganeh,  S. R. Yost,  Zhi-Qiang You,  A. Zech,  Igor Ying Zhang,  
 Xing Zhang,  Yan Zhao,  Ying Zhu,  B. R. Brooks,  G. K. L. Chan,  
 C. J. Cramer,  M. S. Gordon,  W. J. Hehre,  A. Klamt,  M. W. Schmidt,  
 C. D. Sherrill,  D. G. Truhlar,  A. Aspuru-Guzik,  R. Baer,  A. T. Bell,  
 N. A. Besley,  Jeng-Da Chai,  A. E. DePrince, III,  R. A. DiStasio Jr.,  
 A. Dreuw,  B. D. Dunietz,  T. R. Furlani,  Chao-Ping Hsu,  Yousung Jung,  
 Jing Kong,  D. S. Lambrecht,  WanZhen Liang,  C. Ochsenfeld,  
 V. A. Rassolov,  L. V. Slipchenko,  J. E. Subotnik,  T. Van Voorhis,  
 J. M. Herbert,  A. I. Krylov,  P. M. W. Gill,  M. Head-Gordon

 Contributors to earlier versions of Q-Chem not listed above: 
 R. D. Adamson,  B. Austin,  J. Baker,  G. J. O. Beran,  K. Brandhorst,  
 S. T. Brown,  E. F. C. Byrd,  A. K. Chakraborty,  C.-L. Cheng,  
 Siu Hung Chien,  D. M. Chipman,  D. L. Crittenden,  H. Dachsel,  
 R. J. Doerksen,  A. D. Dutoi,  L. Fusti-Molnar,  W. A. Goddard III,  
 A. Golubeva-Zadorozhnaya,  S. R. Gwaltney,  G. Hawkins,  A. Heyden,  
 S. Hirata,  G. Kedziora,  F. J. Keil,  C. Kelley,  Jihan Kim,  R. A. King,  
 R. Z. Khaliullin,  P. P. Korambath,  W. Kurlancheek,  A. M. Lee,  M. S. Lee,  
 S. V. Levchenko,  Ching Yeh Lin,  D. Liotard,  R. C. Lochan,  I. Lotan,  
 P. E. Maslen,  N. Nair,  D. P. O'Neill,  D. Neuhauser,  E. Neuscamman,  
 C. M. Oana,  R. Olson,  B. Peters,  R. Peverati,  P. A. Pieniazek,  
 Y. M. Rhee,  J. Ritchie,  M. A. Rohrdanz,  E. Rosta,  N. J. Russ,  
 H. F. Schaefer III,  N. E. Schultz,  N. Shenvi,  A. C. Simmonett,  A. Sodt,  
 D. Stuck,  K. S. Thanthiriwatte,  V. Vanovschi,  Tao Wang,  A. Warshel,  
 C. F. Williams,  Q. Wu,  X. Xu,  W. Zhang

 Please cite Q-Chem as follows:
 Y. Shao et al., Mol. Phys. 113, 184-215 (2015)
 DOI: 10.1080/00268976.2014.952696

 Q-Chem 5.3.0 for Intel X86 EM64T Linux

 Parts of Q-Chem use Armadillo 9.800.1 (Horizon Scraper).
 http://arma.sourceforge.net/

 Q-Chem begins on Sun Jul 12 20:15:47 2020  

Host: centos77-c2
0

     Scratch files written to /tmp/28905.centos77-h1/qchem120496//
Processing $rem in /opt/qchem-5.3.0-intel2020u1//config/preferences:
Processing $rem in /home/shihchengli/.qchemrc:

Checking the input file for inconsistencies... 	...done.

--------------------------------------------------------------
User input:
--------------------------------------------------------------
$rem
   JOBTYPE  sp
   EXCHANGE   omegaB97X-D
   BASIS   6-311+G(2df,2pd)
   UNRESTRICTED   True
   max_scf_cycles   250
   geom_opt_max_cycles   1500
   basis2 6-31G*
   scf_algorithm rca_diis
   SYM_IGNORE  TRUE
   print_input   true
   geom_opt_dmax   80
   pop_mulliken false
   XC_GRID 000075000302
$end

$molecule
0 2
N       -0.0057733202     0.0582674884     -0.0000000000
O       0.0053621510     -1.1663119471     0.0000000000
O       -1.1013120462     0.5549968079     0.0000000000
O       1.1017234971     0.5491195729     0.0000000000
$end
--------------------------------------------------------------
 ----------------------------------------------------------------
             Standard Nuclear Orientation (Angstroms)
    I     Atom           X                Y                Z
 ----------------------------------------------------------------
    1      N      -0.0057733202     0.0582674884     0.0000000000
    2      O       0.0053621510    -1.1663119471     0.0000000000
    3      O      -1.1013120462     0.5549968079     0.0000000000
    4      O       1.1017234971     0.5491195729     0.0000000000
 ----------------------------------------------------------------
 Nuclear Repulsion Energy =         121.85472430 hartrees
 There are       16 alpha and       15 beta electrons
 Requested basis set is 6-311+G(2df,2pd)
 There are 32 shells and 136 basis functions

 Total QAlloc Memory Limit   2000 MB
 Mega-Array Size       188 MB
 MEM_STATIC part       192 MB

                       Distance Matrix (Angstroms)
             N (  1)   O (  2)   O (  3)
   O (  2)  1.224630
   O (  3)  1.202890  2.046370
   O (  4)  1.211398  2.035857  2.203043
 
 A cutoff of  1.0D-09 yielded    512 shell pairs
 There are      9503 function pairs (     12563 Cartesian)
 Smallest overlap matrix eigenvalue = 1.03E-03

 Scale SEOQF with 1.000000e-01/1.000000e-01/1.000000e-01

 Standard Electronic Orientation quadrupole field applied
 Nucleus-field energy     =     0.0000000018 hartrees
 Requested basis set is 6-31G(d)
 There are 16 shells and 56 basis functions
 A cutoff of  1.0D-09 yielded    133 shell pairs
 There are      1681 function pairs (      1935 Cartesian)
 Smallest overlap matrix eigenvalue = 4.89E-03
 Guess from superposition of atomic densities
 Warning:  Energy on first SCF cycle will be non-variational
 SAD guess density has 31.000000 electrons
 Long-range K will be added via erf
 Coulomb attenuation parameter = 0.2 bohr**(-1)
 An unrestricted hybrid HF-DFT SCF calculation will be
 performed using Relaxed Constraint Minimization + Pulay DIIS
 Exchange:     0.2220 Hartree-Fock + 1.0000 wB97X-D + LR-HF
 Correlation:  1.0000 wB97X-D
 Using Euler-Maclaurin-Lebedev (75,302) quadrature formula
 Dispersion:   Grimme D
 SCF converges when DIIS error is below 1.0E-04
 using 6 threads for integral computing
 -------------------------------------------------------
 OpenMP Integral computing Module                
 Release: version 1.0, May 2013, Q-Chem Inc. Pittsburgh 
 -------------------------------------------------------
 using 6 threads for integral computing
 -------------------------------------------------------
 OpenMP Integral computing Module                
 Release: version 1.0, May 2013, Q-Chem Inc. Pittsburgh 
 -------------------------------------------------------
 ---------------------------------------
  Cycle       Energy         DIIS Error
 ---------------------------------------
    1    -281.1255937835      1.19E-01
    2    -279.9179949001      2.57E-02
    3    -280.0020590429      3.63E-03
    4    -280.1087925788      3.07E-03
    5    -280.1099750674      5.37E-04 Done RCA. Switching to DIIS
    6    -280.1116604259      6.02E-04
    7    -280.1118521304      2.38E-04
    8    -280.1119657141      1.62E-04
    9    -280.1120446756      6.05E-05 Convergence criterion met
 ---------------------------------------
 <S^2> = 0.7549
 SCF time:  CPU 12.18 s  wall 2.27 s
 SCF   energy in the small basis set = -280.11204468
 Total energy in the small basis set = -280.11204468
 ----------------------------------------------------
  Cycle       Energy    
 ----------------------------------------------------
    1     -28.3976577240     -2.84E+01
 Long-range K will be added via erf
 Coulomb attenuation parameter = 0.2 bohr**(-1)
 An unrestricted hybrid HF-DFT SCF calculation will be
 performed using Relaxed Constraint Minimization + Pulay DIIS
 Exchange:     0.2220 Hartree-Fock + 1.0000 wB97X-D + LR-HF
 Correlation:  1.0000 wB97X-D
 Using Euler-Maclaurin-Lebedev (75,302) quadrature formula
 Dispersion:   Grimme D
 SCF converges when DIIS error is below 1.0E-05
 Basis2 calculation detected. Using small basis as guess for larger.
 SCFMinFind is unable to tell whether the solution found is close.
 Resetting ReadMinima to 0 and attempting to follow guess.
 SCFMinFind following SCF Guess.
 using 6 threads for integral computing
 -------------------------------------------------------
 OpenMP Integral computing Module                
 Release: version 1.0, May 2013, Q-Chem Inc. Pittsburgh 
 -------------------------------------------------------
 using 6 threads for integral computing
 -------------------------------------------------------
 OpenMP Integral computing Module                
 Release: version 1.0, May 2013, Q-Chem Inc. Pittsburgh 
 -------------------------------------------------------
 ---------------------------------------
  Cycle       Energy         DIIS Error
 ---------------------------------------
    1    -280.1781161513      9.99E-03
    2    -280.1709782134      5.81E-03
    3    -280.1898635292      1.73E-03
    4    -280.2150798510      1.16E-03
    5    -280.2175521881      5.18E-04 Done RCA. Switching to DIIS
    6    -280.2199046278      8.89E-04
    7    -280.2213665506      1.18E-04
    8    -280.2214645261      6.50E-05
    9    -280.2215238290      4.88E-05
   10    -280.2215692490      6.75E-06 Convergence criterion met
 ---------------------------------------
 <S^2> = 0.7563
 SCF time:  CPU 49.43 s  wall 9.16 s
 SCF   energy in the final basis set = -280.22156925
 Total energy in the final basis set = -280.22156925
 
 --------------------------------------------------------------
 
                    Orbital Energies (a.u.)
 --------------------------------------------------------------
 
 Alpha MOs
 -- Occupied --
-19.4012 -19.3691 -19.3652 -14.7866  -1.4894  -1.2696  -1.2462  -0.7899
 -0.7461  -0.7173  -0.7095  -0.5605  -0.5079  -0.4937  -0.4806  -0.4598
 -- Virtual --
 -0.0235   0.0869   0.1380   0.1382   0.1570   0.2279   0.2336   0.2398
  0.2588   0.2601   0.2728   0.3265   0.3296   0.3339   0.3492   0.3543
  0.3848   0.4374   0.4436   0.4826   0.7589   0.7832   0.8766   0.8913
  0.9842   0.9863   1.0183   1.0318   1.0585   1.0643   1.0644   1.1080
  1.1143   1.1516   1.1808   1.3430   1.3777   1.4803   1.4980   1.5626
  1.5680   1.5861   1.5921   1.6392   1.7417   1.9097   1.9676   1.9715
  2.0138   2.2376   2.3646   2.4364   2.4648   2.5177   2.6869   2.7796
  3.6221   3.6536   3.6910   3.6954   3.7710   3.9889   4.0166   4.2807
  4.3479   4.4018   4.4372   4.5037   4.5347   4.5920   4.6036   4.9755
  4.9778   4.9797   4.9985   5.0191   5.0297   5.0351   5.0799   5.0909
  5.1092   5.1174   5.1551   5.2038   5.2081   5.2792   5.3364   5.4373
  5.5894   5.6469   5.8357   5.8484   6.2858   6.3185   6.4059   6.4974
  6.6257   6.7165   6.7461   6.7736   6.7796   6.8051   6.8117   6.8359
  7.0893   7.1507   7.1690   7.2497   7.3623   7.4210   7.4643   7.5477
  7.8214   7.8460   8.0206   8.1949  36.2388  50.0747  50.1995  50.2278
 
 Beta MOs
 -- Occupied --
-19.3859 -19.3622 -19.3596 -14.7875  -1.4771  -1.2555  -1.2168  -0.7697
 -0.7432  -0.6957  -0.6853  -0.4790  -0.4758  -0.4731  -0.4588
 -- Virtual --
 -0.1673  -0.0194   0.0866   0.1372   0.1372   0.1565   0.2281   0.2334
  0.2407   0.2584   0.2595   0.2806   0.3266   0.3296   0.3341   0.3488
  0.3539   0.3974   0.4390   0.4461   0.4959   0.7580   0.7848   0.8819
  0.9010   0.9865   0.9877   1.0225   1.0521   1.0605   1.0668   1.0698
  1.1100   1.1245   1.1734   1.1838   1.3521   1.3898   1.5012   1.5089
  1.5697   1.5899   1.5973   1.6043   1.6483   1.7503   1.9204   1.9704
  1.9846   2.0389   2.2418   2.3690   2.4477   2.4694   2.5218   2.7022
  2.7892   3.6200   3.6544   3.6932   3.6957   3.7732   3.9891   4.0278
  4.2869   4.3580   4.4126   4.4412   4.5108   4.5343   4.5939   4.6035
  4.9958   5.0063   5.0197   5.0294   5.0357   5.0527   5.0579   5.1059
  5.1172   5.1246   5.1300   5.1626   5.2173   5.2318   5.3034   5.3568
  5.4457   5.6056   5.6617   5.8440   5.8576   6.3067   6.3501   6.4134
  6.5030   6.6479   6.7552   6.7870   6.7901   6.8040   6.8171   6.8458
  6.8751   7.1201   7.1566   7.1830   7.2580   7.3856   7.4487   7.4843
  7.5656   7.8313   7.8602   8.0253   8.2040  36.2379  50.0873  50.2055
 50.2354
 --------------------------------------------------------------
 
 -----------------------------------------------------------------
                    Cartesian Multipole Moments
 -----------------------------------------------------------------
    Charge (ESU x 10^10)
                -0.0000
    Dipole Moment (Debye)
         X       0.0087      Y      -0.3044      Z      -0.0000
       Tot       0.3045
    Quadrupole Moments (Debye-Ang)
        XX     -23.0444     XY       0.0505     YY     -22.2568
        XZ      -0.0000     YZ       0.0000     ZZ     -19.9839
    Octopole Moments (Debye-Ang^2)
       XXX       0.0485    XXY      -1.2557    XYY       0.0167
       YYY      -0.1874    XXZ      -0.0000    XYZ      -0.0000
       YYZ      -0.0000    XZZ      -0.0391    YZZ       0.0663
       ZZZ      -0.0000
    Hexadecapole Moments (Debye-Ang^3)
      XXXX     -94.3218   XXXY       0.2337   XXYY     -28.8725
      XYYY       0.3177   YYYY     -79.2100   XXXZ      -0.0000
      XXYZ      -0.0000   XYYZ      -0.0000   YYYZ       0.0000
      XXZZ     -18.2479   XYZZ       0.0585   YYZZ     -15.9592
      XZZZ      -0.0000   YZZZ       0.0000   ZZZZ     -14.8978
 -----------------------------------------------------------------
Archival summary:
1\1\centos77-c2\SP\ProcedureUnspecified\BasisUnspecified\31(2)\shihchen\SunJul1220:16:002020SunJul1220:16:002020\0\\#,ProcedureUnspecified,BasisUnspecified,\\0,2\N\O,1,1.20289\O,1,1.2114,2,131.707\O,1,1.22463,2,114.911,3,-180,0\\\@

 Total job time:  13.31s(wall), 65.56s(cpu) 
 Sun Jul 12 20:16:00 2020

        *************************************************************
        *                                                           *
        *  Thank you very much for using Q-Chem.  Have a nice day.  *
        *                                                           *
        *************************************************************


