                  Welcome to Q-Chem
     A Quantum Leap Into The Future Of Chemistry


 Q-Chem 5.3 (devel), Q-Chem, Inc., Pleasanton, CA (2020)

 Yihan Shao,  Zhengting Gan,  E. Epifanovsky,  A. T. B. Gilbert,  M. Wormit,  
 J. Kussmann,  A. W. Lange,  A. Behn,  Jia Deng,  Xintian Feng,  D. Ghosh,  
 M. Goldey,  P. R. Horn,  L. D. Jacobson,  I. Kaliman,  T. Kus,  A. Landau,  
 Jie Liu,  E. I. Proynov,  R. M. Richard,  R. P. Steele,  E. J. Sundstrom,  
 H. L. Woodcock III,  P. M. Zimmerman,  D. Zuev,  B. Alam,  B. Albrecht,  
 E. Alguire,  S. A. Baeppler,  D. Barton,  Z. Benda,  Y. A. Bernard,  
 E. J. Berquist,  K. B. Bravaya,  H. Burton,  K. Carter-Fenk,  D. Casanova,  
 Chun-Min Chang,  Yunqing Chen,  A. Chien,  K. D. Closser,  M. P. Coons,  
 S. Coriani,  S. Dasgupta,  A. L. Dempwolff,  M. Diedenhofen,  Hainam Do,  
 R. G. Edgar,  Po-Tung Fang,  S. Faraji,  S. Fatehi,  Qingguo Feng,  
 J. Fosso-Tande,  J. Gayvert,  Qinghui Ge,  A. Ghysels,  G. Gidofalvi,  
 J. Gomes,  J. Gonthier,  A. Gunina,  D. Hait,  M. W. D. Hanson-Heine,  
 P. H. P. Harbach,  A. W. Hauser,  M. F. Herbst,  J. E. Herr,  
 E. G. Hohenstein,  Z. C. Holden,  Kerwin Hui,  B. C. Huynh,  T.-C. Jagau,  
 Hyunjun Ji,  B. Kaduk,  K. Khistyaev,  Jaehoon Kim,  P. Klunzinger,  K. Koh,  
 D. Kosenkov,  L. Koulias,  T. Kowalczyk,  C. M. Krauter,  A. Kunitsa,  
 Ka Un Lao,  A. Laurent,  K. V. Lawler,  Joonho Lee,  D. Lefrancois,  
 S. Lehtola,  D. S. Levine,  Yi-Pei Li,  You-Sheng Lin,  Fenglai Liu,  
 Kuan-Yu Liu,  E. Livshits,  M. Loipersberger,  A. Luenser,  P. Manohar,  
 E. Mansoor,  S. F. Manzer,  Shan-Ping Mao,  Yuezhi Mao,  N. Mardirossian,  
 A. V. Marenich,  T. Markovich,  L. A. Martinez-Martinez,  S. A. Maurer,  
 N. J. Mayhall,  S. C. McKenzie,  J.-M. Mewes,  P. Morgante,  A. F. Morrison,  
 J. W. Mullinax,  K. Nanda,  T. S. Nguyen-Beck,  R. Olivares-Amaya,  
 K. J. Oosterbaan,  J. A. Parkhill,  S. K. Paul,  F. Pavosevic,  Zheng Pei,  
 T. M. Perrine,  F. Plasser,  P. Pokhilko,  S. Prager,  A. Prociuk,  
 E. Ramos,  B. Rana,  D. R. Rehn,  F. Rob,  M. Scheurer,  M. Schneider,  
 N. Sergueev,  S. M. Sharada,  S. Sharma,  D. W. Small,  T. Stauch,  
 C. J. Stein,  T. Stein,  Yu-Chuan Su,  S. P. Veccham,  Zhen Tao,  
 A. J. W. Thom,  A. Tkatchenko,  T. Tsuchimochi,  N. M. Tubman,  L. Vogt,  
 M. L. Vidal,  O. Vydrov,  M. A. Watson,  J. Wenzel,  M. de Wergifosse,  
 T. A. Wesolowski,  A. White,  J. Witte,  A. Yamada,  Jun Yang,  K. Yao,  
 S. Yeganeh,  S. R. Yost,  Zhi-Qiang You,  A. Zech,  Igor Ying Zhang,  
 Xing Zhang,  Yan Zhao,  Ying Zhu,  B. R. Brooks,  G. K. L. Chan,  
 C. J. Cramer,  M. S. Gordon,  W. J. Hehre,  A. Klamt,  M. W. Schmidt,  
 C. D. Sherrill,  D. G. Truhlar,  A. Aspuru-Guzik,  R. Baer,  A. T. Bell,  
 N. A. Besley,  Jeng-Da Chai,  A. E. DePrince, III,  R. A. DiStasio Jr.,  
 A. Dreuw,  B. D. Dunietz,  T. R. Furlani,  Chao-Ping Hsu,  Yousung Jung,  
 Jing Kong,  D. S. Lambrecht,  WanZhen Liang,  C. Ochsenfeld,  
 V. A. Rassolov,  L. V. Slipchenko,  J. E. Subotnik,  T. Van Voorhis,  
 J. M. Herbert,  A. I. Krylov,  P. M. W. Gill,  M. Head-Gordon

 Contributors to earlier versions of Q-Chem not listed above: 
 R. D. Adamson,  B. Austin,  J. Baker,  G. J. O. Beran,  K. Brandhorst,  
 S. T. Brown,  E. F. C. Byrd,  A. K. Chakraborty,  C.-L. Cheng,  
 Siu Hung Chien,  D. M. Chipman,  D. L. Crittenden,  H. Dachsel,  
 R. J. Doerksen,  A. D. Dutoi,  L. Fusti-Molnar,  W. A. Goddard III,  
 A. Golubeva-Zadorozhnaya,  S. R. Gwaltney,  G. Hawkins,  A. Heyden,  
 S. Hirata,  G. Kedziora,  F. J. Keil,  C. Kelley,  Jihan Kim,  R. A. King,  
 R. Z. Khaliullin,  P. P. Korambath,  W. Kurlancheek,  A. M. Lee,  M. S. Lee,  
 S. V. Levchenko,  Ching Yeh Lin,  D. Liotard,  R. C. Lochan,  I. Lotan,  
 P. E. Maslen,  N. Nair,  D. P. O'Neill,  D. Neuhauser,  E. Neuscamman,  
 C. M. Oana,  R. Olson,  B. Peters,  R. Peverati,  P. A. Pieniazek,  
 Y. M. Rhee,  J. Ritchie,  M. A. Rohrdanz,  E. Rosta,  N. J. Russ,  
 H. F. Schaefer III,  N. E. Schultz,  N. Shenvi,  A. C. Simmonett,  A. Sodt,  
 D. Stuck,  K. S. Thanthiriwatte,  V. Vanovschi,  Tao Wang,  A. Warshel,  
 C. F. Williams,  Q. Wu,  X. Xu,  W. Zhang

 Please cite Q-Chem as follows:
 Y. Shao et al., Mol. Phys. 113, 184-215 (2015)
 DOI: 10.1080/00268976.2014.952696

 Q-Chem 5.3.0 for Intel X86 EM64T Linux

 Parts of Q-Chem use Armadillo 9.800.1 (Horizon Scraper).
 http://arma.sourceforge.net/

 Q-Chem begins on Sun Jul 12 20:25:50 2020  

Host: centos77-c2
0

     Scratch files written to /tmp/28905.centos77-h1/qchem122783//
Processing $rem in /opt/qchem-5.3.0-intel2020u1//config/preferences:
Processing $rem in /home/shihchengli/.qchemrc:

Checking the input file for inconsistencies... 	...done.

--------------------------------------------------------------
User input:
--------------------------------------------------------------
$rem
   JOBTYPE  sp
   EXCHANGE   omegaB97X-D
   BASIS   6-311+G(2df,2pd)
   UNRESTRICTED   True
   max_scf_cycles   250
   geom_opt_max_cycles   1500
   basis2 6-31G*
   scf_algorithm rca_diis
   SYM_IGNORE  TRUE
   print_input   true
   geom_opt_dmax   80
   pop_mulliken false
   XC_GRID 000075000302
$end

$molecule
0 2
N       -0.0004923975     -0.0359482105     0.0000000000
O       0.0001280350     -1.2092242916     -0.0000000000
O       -0.9785321102     0.6205848570     -0.0000000000
O       0.9788967546     0.6206595672     -0.0000000000
$end
--------------------------------------------------------------
 ----------------------------------------------------------------
             Standard Nuclear Orientation (Angstroms)
    I     Atom           X                Y                Z
 ----------------------------------------------------------------
    1      N      -0.0004923975    -0.0359482105     0.0000000000
    2      O       0.0001280350    -1.2092242916     0.0000000000
    3      O      -0.9785321102     0.6205848570     0.0000000000
    4      O       0.9788967546     0.6206595672     0.0000000000
 ----------------------------------------------------------------
 Nuclear Repulsion Energy =         125.48929902 hartrees
 There are       16 alpha and       15 beta electrons
 Requested basis set is 6-311+G(2df,2pd)
 There are 32 shells and 136 basis functions

 Total QAlloc Memory Limit   2000 MB
 Mega-Array Size       188 MB
 MEM_STATIC part       192 MB

                       Distance Matrix (Angstroms)
             N (  1)   O (  2)   O (  3)
   O (  2)  1.173276
   O (  3)  1.177963  2.075085
   O (  4)  1.179125  2.075202  1.957429
 
 A cutoff of  1.0D-09 yielded    515 shell pairs
 There are      9529 function pairs (     12591 Cartesian)
 Smallest overlap matrix eigenvalue = 9.90E-04

 Scale SEOQF with 1.000000e-01/1.000000e-01/1.000000e-01

 Standard Electronic Orientation quadrupole field applied
 Nucleus-field energy     =     0.0000000018 hartrees
 Requested basis set is 6-31G(d)
 There are 16 shells and 56 basis functions
 A cutoff of  1.0D-09 yielded    133 shell pairs
 There are      1681 function pairs (      1935 Cartesian)
 Smallest overlap matrix eigenvalue = 4.79E-03
 Guess from superposition of atomic densities
 Warning:  Energy on first SCF cycle will be non-variational
 SAD guess density has 31.000000 electrons
 Long-range K will be added via erf
 Coulomb attenuation parameter = 0.2 bohr**(-1)
 An unrestricted hybrid HF-DFT SCF calculation will be
 performed using Relaxed Constraint Minimization + Pulay DIIS
 Exchange:     0.2220 Hartree-Fock + 1.0000 wB97X-D + LR-HF
 Correlation:  1.0000 wB97X-D
 Using Euler-Maclaurin-Lebedev (75,302) quadrature formula
 Dispersion:   Grimme D
 SCF converges when DIIS error is below 1.0E-04
 using 6 threads for integral computing
 -------------------------------------------------------
 OpenMP Integral computing Module                
 Release: version 1.0, May 2013, Q-Chem Inc. Pittsburgh 
 -------------------------------------------------------
 using 6 threads for integral computing
 -------------------------------------------------------
 OpenMP Integral computing Module                
 Release: version 1.0, May 2013, Q-Chem Inc. Pittsburgh 
 -------------------------------------------------------
 ---------------------------------------
  Cycle       Energy         DIIS Error
 ---------------------------------------
    1    -281.4120542664      1.30E-01
    2    -279.9250623780      2.49E-02
    3    -280.0035822878      3.28E-03
    4    -280.0984617665      2.82E-03
    5    -280.0993814172      7.08E-04 Done RCA. Switching to DIIS
    6    -280.1007550353      6.78E-04
    7    -280.1009246243      1.18E-04
    8    -280.1009508446      8.53E-05 Convergence criterion met
 ---------------------------------------
 <S^2> = 0.7547
 SCF time:  CPU 10.00 s  wall 1.90 s
 SCF   energy in the small basis set = -280.10095084
 Total energy in the small basis set = -280.10095084
 ----------------------------------------------------
  Cycle       Energy    
 ----------------------------------------------------
    1     -28.4939474492     -2.85E+01
 Long-range K will be added via erf
 Coulomb attenuation parameter = 0.2 bohr**(-1)
 An unrestricted hybrid HF-DFT SCF calculation will be
 performed using Relaxed Constraint Minimization + Pulay DIIS
 Exchange:     0.2220 Hartree-Fock + 1.0000 wB97X-D + LR-HF
 Correlation:  1.0000 wB97X-D
 Using Euler-Maclaurin-Lebedev (75,302) quadrature formula
 Dispersion:   Grimme D
 SCF converges when DIIS error is below 1.0E-05
 Basis2 calculation detected. Using small basis as guess for larger.
 SCFMinFind is unable to tell whether the solution found is close.
 Resetting ReadMinima to 0 and attempting to follow guess.
 SCFMinFind following SCF Guess.
 using 6 threads for integral computing
 -------------------------------------------------------
 OpenMP Integral computing Module                
 Release: version 1.0, May 2013, Q-Chem Inc. Pittsburgh 
 -------------------------------------------------------
 using 6 threads for integral computing
 -------------------------------------------------------
 OpenMP Integral computing Module                
 Release: version 1.0, May 2013, Q-Chem Inc. Pittsburgh 
 -------------------------------------------------------
 ---------------------------------------
  Cycle       Energy         DIIS Error
 ---------------------------------------
    1    -280.1755920633      9.88E-03
    2    -280.1849147539      4.55E-03
    3    -280.1954223266      1.43E-03
    4    -280.2107085467      1.36E-03
    5    -280.2118552170      2.29E-04 Done RCA. Switching to DIIS
    6    -280.2133109122      2.22E-04
    7    -280.2134481512      3.46E-05
    8    -280.2134903958      4.32E-05
    9    -280.2135259856      2.23E-05
   10    -280.2135280375      9.40E-06 Convergence criterion met
 ---------------------------------------
 <S^2> = 0.7563
 SCF time:  CPU 43.65 s  wall 8.24 s
 SCF   energy in the final basis set = -280.21352804
 Total energy in the final basis set = -280.21352804
 
 --------------------------------------------------------------
 
                    Orbital Energies (a.u.)
 --------------------------------------------------------------
 
 Alpha MOs
 -- Occupied --
-19.3809 -19.3806 -19.3528 -14.7845  -1.5246  -1.2880  -1.2733  -0.7813
 -0.7688  -0.7224  -0.7156  -0.5553  -0.5196  -0.4936  -0.4847  -0.4556
 -- Virtual --
 -0.0026   0.0891   0.1369   0.1380   0.1551   0.2358   0.2384   0.2401
  0.2594   0.2602   0.3212   0.3300   0.3343   0.3437   0.3535   0.3540
  0.4345   0.4429   0.4519   0.5162   0.7569   0.7975   0.8655   0.8972
  0.9800   0.9981   1.0189   1.0422   1.0545   1.0601   1.0762   1.1016
  1.1152   1.1480   1.1855   1.3378   1.3953   1.4800   1.5341   1.5610
  1.5836   1.5839   1.6100   1.6396   1.8472   1.9064   1.9876   1.9999
  2.0775   2.3122   2.3793   2.4851   2.5065   2.5401   2.7603   2.8366
  3.6134   3.6382   3.6679   3.7522   3.8173   4.0435   4.1134   4.2953
  4.3486   4.3637   4.4493   4.4888   4.4891   4.4975   4.5897   4.9858
  4.9867   4.9881   4.9932   5.0150   5.0164   5.0417   5.0827   5.1228
  5.1397   5.1618   5.1621   5.1626   5.2557   5.3293   5.3804   5.5778
  5.6581   5.8412   5.8754   5.9242   6.3436   6.5366   6.5919   6.7026
  6.7185   6.7558   6.7804   6.7874   6.8100   6.8297   6.8549   6.9080
  7.0427   7.1671   7.2071   7.2531   7.4198   7.5440   7.6276   7.6570
  7.9120   8.0162   8.0969   8.2707  36.4319  50.1347  50.2869  50.2962
 
 Beta MOs
 -- Occupied --
-19.3692 -19.3690 -19.3480 -14.7854  -1.5125  -1.2728  -1.2470  -0.7658
 -0.7609  -0.6985  -0.6901  -0.4794  -0.4772  -0.4759  -0.4658
 -- Virtual --
 -0.1636   0.0016   0.0886   0.1360   0.1365   0.1548   0.2360   0.2374
  0.2406   0.2589   0.2595   0.3295   0.3311   0.3332   0.3426   0.3533
  0.3539   0.4398   0.4451   0.4630   0.5305   0.7560   0.7995   0.8710
  0.9060   0.9815   1.0004   1.0229   1.0573   1.0623   1.0651   1.0803
  1.1104   1.1167   1.1698   1.1888   1.3469   1.4066   1.5011   1.5476
  1.5723   1.5908   1.5945   1.6284   1.6492   1.8611   1.9184   1.9968
  2.0028   2.1013   2.3164   2.3841   2.4948   2.5130   2.5436   2.7756
  2.8483   3.6114   3.6385   3.6680   3.7546   3.8200   4.0439   4.1258
  4.3037   4.3565   4.3713   4.4492   4.4887   4.4998   4.5051   4.5903
  5.0063   5.0066   5.0228   5.0281   5.0306   5.0493   5.0634   5.1146
  5.1425   5.1499   5.1679   5.1700   5.1768   5.2812   5.3566   5.4015
  5.5871   5.6739   5.8567   5.8843   5.9364   6.3644   6.5708   6.5983
  6.7324   6.7590   6.7811   6.8050   6.8296   6.8299   6.8339   6.8781
  6.9244   7.0763   7.1747   7.2186   7.2626   7.4535   7.5625   7.6474
  7.6678   7.9258   8.0243   8.1003   8.2885  36.4312  50.1447  50.2917
 50.3068
 --------------------------------------------------------------
 
 -----------------------------------------------------------------
                    Cartesian Multipole Moments
 -----------------------------------------------------------------
    Charge (ESU x 10^10)
                 0.0000
    Dipole Moment (Debye)
         X       0.0008      Y       0.2526      Z       0.0000
       Tot       0.2526
    Quadrupole Moments (Debye-Ang)
        XX     -22.2160     XY       0.0011     YY     -22.9539
        XZ      -0.0000     YZ       0.0000     ZZ     -19.7638
    Octopole Moments (Debye-Ang^2)
       XXX       0.0040    XXY      -0.6496    XYY       0.0005
       YYY       1.8602    XXZ       0.0000    XYZ      -0.0000
       YYZ       0.0000    XZZ      -0.0039    YZZ       0.0058
       ZZZ       0.0000
    Hexadecapole Moments (Debye-Ang^3)
      XXXX     -76.8139   XXXY      -0.0028   XXYY     -27.7747
      XYYY      -0.0011   YYYY     -88.3087   XXXZ      -0.0000
      XXYZ       0.0000   XYYZ      -0.0000   YYYZ       0.0000
      XXZZ     -15.4908   XYZZ      -0.0028   YYZZ     -17.1649
      XZZZ      -0.0000   YZZZ       0.0000   ZZZZ     -14.5726
 -----------------------------------------------------------------
Archival summary:
1\1\centos77-c2\SP\ProcedureUnspecified\BasisUnspecified\31(2)\shihchen\SunJul1220:26:022020SunJul1220:26:022020\0\\#,ProcedureUnspecified,BasisUnspecified,\\0,2\N\O,1,1.17328\O,1,1.17796,2,123.903\O,1,1.17913,2,123.809,3,-180,0\\\@

 Total job time:  11.89s(wall), 57.00s(cpu) 
 Sun Jul 12 20:26:02 2020

        *************************************************************
        *                                                           *
        *  Thank you very much for using Q-Chem.  Have a nice day.  *
        *                                                           *
        *************************************************************


