                  Welcome to Q-Chem
     A Quantum Leap Into The Future Of Chemistry


 Q-Chem 5.3 (devel), Q-Chem, Inc., Pleasanton, CA (2020)

 Yihan Shao,  Zhengting Gan,  E. Epifanovsky,  A. T. B. Gilbert,  M. Wormit,  
 J. Kussmann,  A. W. Lange,  A. Behn,  Jia Deng,  Xintian Feng,  D. Ghosh,  
 M. Goldey,  P. R. Horn,  L. D. Jacobson,  I. Kaliman,  T. Kus,  A. Landau,  
 Jie Liu,  E. I. Proynov,  R. M. Richard,  R. P. Steele,  E. J. Sundstrom,  
 H. L. Woodcock III,  P. M. Zimmerman,  D. Zuev,  B. Alam,  B. Albrecht,  
 E. Alguire,  S. A. Baeppler,  D. Barton,  Z. Benda,  Y. A. Bernard,  
 E. J. Berquist,  K. B. Bravaya,  H. Burton,  K. Carter-Fenk,  D. Casanova,  
 Chun-Min Chang,  Yunqing Chen,  A. Chien,  K. D. Closser,  M. P. Coons,  
 S. Coriani,  S. Dasgupta,  A. L. Dempwolff,  M. Diedenhofen,  Hainam Do,  
 R. G. Edgar,  Po-Tung Fang,  S. Faraji,  S. Fatehi,  Qingguo Feng,  
 J. Fosso-Tande,  J. Gayvert,  Qinghui Ge,  A. Ghysels,  G. Gidofalvi,  
 J. Gomes,  J. Gonthier,  A. Gunina,  D. Hait,  M. W. D. Hanson-Heine,  
 P. H. P. Harbach,  A. W. Hauser,  M. F. Herbst,  J. E. Herr,  
 E. G. Hohenstein,  Z. C. Holden,  Kerwin Hui,  B. C. Huynh,  T.-C. Jagau,  
 Hyunjun Ji,  B. Kaduk,  K. Khistyaev,  Jaehoon Kim,  P. Klunzinger,  K. Koh,  
 D. Kosenkov,  L. Koulias,  T. Kowalczyk,  C. M. Krauter,  A. Kunitsa,  
 Ka Un Lao,  A. Laurent,  K. V. Lawler,  Joonho Lee,  D. Lefrancois,  
 S. Lehtola,  D. S. Levine,  Yi-Pei Li,  You-Sheng Lin,  Fenglai Liu,  
 Kuan-Yu Liu,  E. Livshits,  M. Loipersberger,  A. Luenser,  P. Manohar,  
 E. Mansoor,  S. F. Manzer,  Shan-Ping Mao,  Yuezhi Mao,  N. Mardirossian,  
 A. V. Marenich,  T. Markovich,  L. A. Martinez-Martinez,  S. A. Maurer,  
 N. J. Mayhall,  S. C. McKenzie,  J.-M. Mewes,  P. Morgante,  A. F. Morrison,  
 J. W. Mullinax,  K. Nanda,  T. S. Nguyen-Beck,  R. Olivares-Amaya,  
 K. J. Oosterbaan,  J. A. Parkhill,  S. K. Paul,  F. Pavosevic,  Zheng Pei,  
 T. M. Perrine,  F. Plasser,  P. Pokhilko,  S. Prager,  A. Prociuk,  
 E. Ramos,  B. Rana,  D. R. Rehn,  F. Rob,  M. Scheurer,  M. Schneider,  
 N. Sergueev,  S. M. Sharada,  S. Sharma,  D. W. Small,  T. Stauch,  
 C. J. Stein,  T. Stein,  Yu-Chuan Su,  S. P. Veccham,  Zhen Tao,  
 A. J. W. Thom,  A. Tkatchenko,  T. Tsuchimochi,  N. M. Tubman,  L. Vogt,  
 M. L. Vidal,  O. Vydrov,  M. A. Watson,  J. Wenzel,  M. de Wergifosse,  
 T. A. Wesolowski,  A. White,  J. Witte,  A. Yamada,  Jun Yang,  K. Yao,  
 S. Yeganeh,  S. R. Yost,  Zhi-Qiang You,  A. Zech,  Igor Ying Zhang,  
 Xing Zhang,  Yan Zhao,  Ying Zhu,  B. R. Brooks,  G. K. L. Chan,  
 C. J. Cramer,  M. S. Gordon,  W. J. Hehre,  A. Klamt,  M. W. Schmidt,  
 C. D. Sherrill,  D. G. Truhlar,  A. Aspuru-Guzik,  R. Baer,  A. T. Bell,  
 N. A. Besley,  Jeng-Da Chai,  A. E. DePrince, III,  R. A. DiStasio Jr.,  
 A. Dreuw,  B. D. Dunietz,  T. R. Furlani,  Chao-Ping Hsu,  Yousung Jung,  
 Jing Kong,  D. S. Lambrecht,  WanZhen Liang,  C. Ochsenfeld,  
 V. A. Rassolov,  L. V. Slipchenko,  J. E. Subotnik,  T. Van Voorhis,  
 J. M. Herbert,  A. I. Krylov,  P. M. W. Gill,  M. Head-Gordon

 Contributors to earlier versions of Q-Chem not listed above: 
 R. D. Adamson,  B. Austin,  J. Baker,  G. J. O. Beran,  K. Brandhorst,  
 S. T. Brown,  E. F. C. Byrd,  A. K. Chakraborty,  C.-L. Cheng,  
 Siu Hung Chien,  D. M. Chipman,  D. L. Crittenden,  H. Dachsel,  
 R. J. Doerksen,  A. D. Dutoi,  L. Fusti-Molnar,  W. A. Goddard III,  
 A. Golubeva-Zadorozhnaya,  S. R. Gwaltney,  G. Hawkins,  A. Heyden,  
 S. Hirata,  G. Kedziora,  F. J. Keil,  C. Kelley,  Jihan Kim,  R. A. King,  
 R. Z. Khaliullin,  P. P. Korambath,  W. Kurlancheek,  A. M. Lee,  M. S. Lee,  
 S. V. Levchenko,  Ching Yeh Lin,  D. Liotard,  R. C. Lochan,  I. Lotan,  
 P. E. Maslen,  N. Nair,  D. P. O'Neill,  D. Neuhauser,  E. Neuscamman,  
 C. M. Oana,  R. Olson,  B. Peters,  R. Peverati,  P. A. Pieniazek,  
 Y. M. Rhee,  J. Ritchie,  M. A. Rohrdanz,  E. Rosta,  N. J. Russ,  
 H. F. Schaefer III,  N. E. Schultz,  N. Shenvi,  A. C. Simmonett,  A. Sodt,  
 D. Stuck,  K. S. Thanthiriwatte,  V. Vanovschi,  Tao Wang,  A. Warshel,  
 C. F. Williams,  Q. Wu,  X. Xu,  W. Zhang

 Please cite Q-Chem as follows:
 Y. Shao et al., Mol. Phys. 113, 184-215 (2015)
 DOI: 10.1080/00268976.2014.952696

 Q-Chem 5.3.0 for Intel X86 EM64T Linux

 Parts of Q-Chem use Armadillo 9.800.1 (Horizon Scraper).
 http://arma.sourceforge.net/

 Q-Chem begins on Sun Jul 12 20:24:17 2020  

Host: centos77-c2
0

     Scratch files written to /tmp/28905.centos77-h1/qchem122459//
Processing $rem in /opt/qchem-5.3.0-intel2020u1//config/preferences:
Processing $rem in /home/shihchengli/.qchemrc:

Checking the input file for inconsistencies... 	...done.

--------------------------------------------------------------
User input:
--------------------------------------------------------------
$rem
   JOBTYPE  sp
   EXCHANGE   omegaB97X-D
   BASIS   6-311+G(2df,2pd)
   UNRESTRICTED   True
   max_scf_cycles   250
   geom_opt_max_cycles   1500
   basis2 6-31G*
   scf_algorithm rca_diis
   SYM_IGNORE  TRUE
   print_input   true
   geom_opt_dmax   80
   pop_mulliken false
   XC_GRID 000075000302
$end

$molecule
0 2
N       -0.0258641782     -0.0513646379     0.0000000000
O       -0.0125510250     -1.2449916874     -0.0000000000
O       -1.0074875661     0.6258759858     -0.0000000000
O       1.0459030511     0.6665522616     -0.0000000000
$end
--------------------------------------------------------------
 ----------------------------------------------------------------
             Standard Nuclear Orientation (Angstroms)
    I     Atom           X                Y                Z
 ----------------------------------------------------------------
    1      N      -0.0258641782    -0.0513646379     0.0000000000
    2      O      -0.0125510250    -1.2449916874     0.0000000000
    3      O      -1.0074875661     0.6258759858     0.0000000000
    4      O       1.0459030511     0.6665522616     0.0000000000
 ----------------------------------------------------------------
 Nuclear Repulsion Energy =         120.61872067 hartrees
 There are       16 alpha and       15 beta electrons
 Requested basis set is 6-311+G(2df,2pd)
 There are 32 shells and 136 basis functions

 Total QAlloc Memory Limit   2000 MB
 Mega-Array Size       188 MB
 MEM_STATIC part       192 MB

                       Distance Matrix (Angstroms)
             N (  1)   O (  2)   O (  3)
   O (  2)  1.193701
   O (  3)  1.192577  2.118973
   O (  4)  1.289996  2.185023  2.053793
 
 A cutoff of  1.0D-09 yielded    512 shell pairs
 There are      9503 function pairs (     12563 Cartesian)
 Smallest overlap matrix eigenvalue = 1.06E-03

 Scale SEOQF with 1.000000e-01/1.000000e-01/1.000000e-01

 Standard Electronic Orientation quadrupole field applied
 Nucleus-field energy     =     0.0000000020 hartrees
 Requested basis set is 6-31G(d)
 There are 16 shells and 56 basis functions
 A cutoff of  1.0D-09 yielded    133 shell pairs
 There are      1681 function pairs (      1935 Cartesian)
 Smallest overlap matrix eigenvalue = 5.52E-03
 Guess from superposition of atomic densities
 Warning:  Energy on first SCF cycle will be non-variational
 SAD guess density has 31.000000 electrons
 Long-range K will be added via erf
 Coulomb attenuation parameter = 0.2 bohr**(-1)
 An unrestricted hybrid HF-DFT SCF calculation will be
 performed using Relaxed Constraint Minimization + Pulay DIIS
 Exchange:     0.2220 Hartree-Fock + 1.0000 wB97X-D + LR-HF
 Correlation:  1.0000 wB97X-D
 Using Euler-Maclaurin-Lebedev (75,302) quadrature formula
 Dispersion:   Grimme D
 SCF converges when DIIS error is below 1.0E-04
 using 6 threads for integral computing
 -------------------------------------------------------
 OpenMP Integral computing Module                
 Release: version 1.0, May 2013, Q-Chem Inc. Pittsburgh 
 -------------------------------------------------------
 using 6 threads for integral computing
 -------------------------------------------------------
 OpenMP Integral computing Module                
 Release: version 1.0, May 2013, Q-Chem Inc. Pittsburgh 
 -------------------------------------------------------
 ---------------------------------------
  Cycle       Energy         DIIS Error
 ---------------------------------------
    1    -281.0441579878      1.16E-01
    2    -279.9141745006      2.59E-02
    3    -279.9991027286      4.05E-03
    4    -280.1087856396      3.86E-03
    5    -280.1106607807      7.75E-04 Done RCA. Switching to DIIS
    6    -280.1134068184      7.66E-04
    7    -280.1137696747      3.58E-04
    8    -280.1138426501      2.42E-04
    9    -280.1140906297      1.72E-04
   10    -280.1141861577      3.91E-05 Convergence criterion met
 ---------------------------------------
 <S^2> = 0.7554
 SCF time:  CPU 16.34 s  wall 3.51 s
 SCF   energy in the small basis set = -280.11418616
 Total energy in the small basis set = -280.11418616
 ----------------------------------------------------
  Cycle       Energy    
 ----------------------------------------------------
    1     -28.3744498485     -2.84E+01
 Long-range K will be added via erf
 Coulomb attenuation parameter = 0.2 bohr**(-1)
 An unrestricted hybrid HF-DFT SCF calculation will be
 performed using Relaxed Constraint Minimization + Pulay DIIS
 Exchange:     0.2220 Hartree-Fock + 1.0000 wB97X-D + LR-HF
 Correlation:  1.0000 wB97X-D
 Using Euler-Maclaurin-Lebedev (75,302) quadrature formula
 Dispersion:   Grimme D
 SCF converges when DIIS error is below 1.0E-05
 Basis2 calculation detected. Using small basis as guess for larger.
 SCFMinFind is unable to tell whether the solution found is close.
 Resetting ReadMinima to 0 and attempting to follow guess.
 SCFMinFind following SCF Guess.
 using 6 threads for integral computing
 -------------------------------------------------------
 OpenMP Integral computing Module                
 Release: version 1.0, May 2013, Q-Chem Inc. Pittsburgh 
 -------------------------------------------------------
 using 6 threads for integral computing
 -------------------------------------------------------
 OpenMP Integral computing Module                
 Release: version 1.0, May 2013, Q-Chem Inc. Pittsburgh 
 -------------------------------------------------------
 ---------------------------------------
  Cycle       Energy         DIIS Error
 ---------------------------------------
    1    -280.1749160403      1.01E-02
    2    -280.1572513058      6.55E-03
    3    -280.1808517904      2.09E-03
    4    -280.2128592255      1.11E-03
    5    -280.2172380503      1.01E-03
    6    -280.2192675763      3.80E-04 Done RCA. Switching to DIIS
    7    -280.2217761409      8.75E-04
    8    -280.2232246423      8.80E-05
    9    -280.2234160971      5.29E-05
   10    -280.2234675308      1.27E-05
   11    -280.2234697086      6.44E-06 Convergence criterion met
 ---------------------------------------
 <S^2> = 0.7569
 SCF time:  CPU 48.06 s  wall 9.38 s
 SCF   energy in the final basis set = -280.22346971
 Total energy in the final basis set = -280.22346971
 
 --------------------------------------------------------------
 
                    Orbital Energies (a.u.)
 --------------------------------------------------------------
 
 Alpha MOs
 -- Occupied --
-19.4025 -19.3776 -19.3580 -14.7850  -1.4777  -1.2676  -1.2355  -0.7916
 -0.7389  -0.7181  -0.7027  -0.5575  -0.5105  -0.4945  -0.4796  -0.4593
 -- Virtual --
 -0.0255   0.0857   0.1374   0.1385   0.1575   0.2019   0.2374   0.2400
  0.2576   0.2586   0.2604   0.3266   0.3320   0.3415   0.3487   0.3487
  0.3846   0.4369   0.4416   0.4775   0.7592   0.7949   0.8580   0.8958
  0.9731   0.9887   1.0260   1.0470   1.0591   1.0688   1.0696   1.1083
  1.1130   1.1495   1.1798   1.3413   1.3842   1.4703   1.5085   1.5471
  1.5750   1.5816   1.5841   1.6310   1.7861   1.8489   1.9457   1.9606
  1.9840   2.2467   2.3327   2.3854   2.4841   2.5133   2.6964   2.7752
  3.6219   3.6589   3.6853   3.6922   3.7530   3.9869   4.0095   4.1964
  4.3803   4.4107   4.4297   4.5217   4.5241   4.5958   4.6540   4.9720
  4.9805   4.9926   4.9944   5.0182   5.0191   5.0339   5.0690   5.0894
  5.1108   5.1160   5.1587   5.1589   5.1789   5.2859   5.3407   5.4502
  5.5194   5.6773   5.7798   5.8460   6.1017   6.2313   6.3026   6.5990
  6.6163   6.6970   6.7409   6.7472   6.7763   6.7818   6.8114   6.8320
  7.0361   7.1488   7.1782   7.2282   7.3020   7.3601   7.5473   7.5727
  7.8275   7.8411   7.9685   8.0884  36.1906  50.0155  50.2007  50.2333
 
 Beta MOs
 -- Occupied --
-19.3866 -19.3689 -19.3551 -14.7859  -1.4671  -1.2555  -1.2008  -0.7712
 -0.7364  -0.6968  -0.6828  -0.4752  -0.4725  -0.4713  -0.4636
 -- Virtual --
 -0.1683  -0.0220   0.0860   0.1371   0.1377   0.1572   0.2082   0.2369
  0.2414   0.2583   0.2598   0.2635   0.3279   0.3311   0.3407   0.3482
  0.3483   0.3943   0.4398   0.4460   0.4883   0.7585   0.7966   0.8648
  0.9035   0.9753   0.9904   1.0296   1.0611   1.0676   1.0736   1.0744
  1.1137   1.1163   1.1729   1.1827   1.3492   1.3958   1.4929   1.5255
  1.5539   1.5888   1.5951   1.5953   1.6409   1.7997   1.8577   1.9547
  1.9637   2.0091   2.2504   2.3372   2.3982   2.4893   2.5165   2.7111
  2.7848   3.6203   3.6600   3.6867   3.6924   3.7552   3.9870   4.0203
  4.2034   4.3875   4.4178   4.4359   4.5212   4.5310   4.5992   4.6535
  4.9949   5.0077   5.0307   5.0310   5.0319   5.0479   5.0562   5.1020
  5.1020   5.1284   5.1299   5.1658   5.1807   5.2006   5.3068   5.3607
  5.4599   5.5339   5.6923   5.7895   5.8533   6.1238   6.2392   6.3311
  6.6053   6.6350   6.7205   6.7696   6.7739   6.8073   6.8272   6.8392
  6.8499   7.0713   7.1629   7.1851   7.2358   7.3191   7.3992   7.5659
  7.5847   7.8371   7.8558   7.9772   8.0937  36.1898  50.0307  50.2078
 50.2374
 --------------------------------------------------------------
 
 -----------------------------------------------------------------
                    Cartesian Multipole Moments
 -----------------------------------------------------------------
    Charge (ESU x 10^10)
                -0.0000
    Dipole Moment (Debye)
         X       0.1558      Y       0.2108      Z      -0.0000
       Tot       0.2621
    Quadrupole Moments (Debye-Ang)
        XX     -22.2100     XY       0.0898     YY     -23.0620
        XZ       0.0000     YZ      -0.0000     ZZ     -20.0452
    Octopole Moments (Debye-Ang^2)
       XXX       0.4443    XXY      -0.5827    XYY       0.0414
       YYY       1.6920    XXZ       0.0000    XYZ      -0.0000
       YYZ      -0.0000    XZZ      -0.2831    YZZ      -0.1845
       ZZZ       0.0000
    Hexadecapole Moments (Debye-Ang^3)
      XXXX     -82.3921   XXXY      -1.2739   XXYY     -29.6722
      XYYY      -0.9892   YYYY     -93.2572   XXXZ       0.0000
      XXYZ       0.0000   XYYZ       0.0000   YYYZ       0.0000
      XXZZ     -16.7167   XYZZ      -0.5751   YYZZ     -18.0811
      XZZZ       0.0000   YZZZ       0.0000   ZZZZ     -15.0030
 -----------------------------------------------------------------
Archival summary:
1\1\centos77-c2\SP\ProcedureUnspecified\BasisUnspecified\31(2)\shihchen\SunJul1220:24:312020SunJul1220:24:312020\0\\#,ProcedureUnspecified,BasisUnspecified,\\0,2\N\O,1,1.19258\O,1,1.1937,2,125.242\O,1,1.29,2,111.582,3,-180,0\\\@

 Total job time:  14.36s(wall), 67.63s(cpu) 
 Sun Jul 12 20:24:31 2020

        *************************************************************
        *                                                           *
        *  Thank you very much for using Q-Chem.  Have a nice day.  *
        *                                                           *
        *************************************************************


