                  Welcome to Q-Chem
     A Quantum Leap Into The Future Of Chemistry


 Q-Chem 5.3 (devel), Q-Chem, Inc., Pleasanton, CA (2020)

 Yihan Shao,  Zhengting Gan,  E. Epifanovsky,  A. T. B. Gilbert,  M. Wormit,  
 J. Kussmann,  A. W. Lange,  A. Behn,  Jia Deng,  Xintian Feng,  D. Ghosh,  
 M. Goldey,  P. R. Horn,  L. D. Jacobson,  I. Kaliman,  T. Kus,  A. Landau,  
 Jie Liu,  E. I. Proynov,  R. M. Richard,  R. P. Steele,  E. J. Sundstrom,  
 H. L. Woodcock III,  P. M. Zimmerman,  D. Zuev,  B. Alam,  B. Albrecht,  
 E. Alguire,  S. A. Baeppler,  D. Barton,  Z. Benda,  Y. A. Bernard,  
 E. J. Berquist,  K. B. Bravaya,  H. Burton,  K. Carter-Fenk,  D. Casanova,  
 Chun-Min Chang,  Yunqing Chen,  A. Chien,  K. D. Closser,  M. P. Coons,  
 S. Coriani,  S. Dasgupta,  A. L. Dempwolff,  M. Diedenhofen,  Hainam Do,  
 R. G. Edgar,  Po-Tung Fang,  S. Faraji,  S. Fatehi,  Qingguo Feng,  
 J. Fosso-Tande,  J. Gayvert,  Qinghui Ge,  A. Ghysels,  G. Gidofalvi,  
 J. Gomes,  J. Gonthier,  A. Gunina,  D. Hait,  M. W. D. Hanson-Heine,  
 P. H. P. Harbach,  A. W. Hauser,  M. F. Herbst,  J. E. Herr,  
 E. G. Hohenstein,  Z. C. Holden,  Kerwin Hui,  B. C. Huynh,  T.-C. Jagau,  
 Hyunjun Ji,  B. Kaduk,  K. Khistyaev,  Jaehoon Kim,  P. Klunzinger,  K. Koh,  
 D. Kosenkov,  L. Koulias,  T. Kowalczyk,  C. M. Krauter,  A. Kunitsa,  
 Ka Un Lao,  A. Laurent,  K. V. Lawler,  Joonho Lee,  D. Lefrancois,  
 S. Lehtola,  D. S. Levine,  Yi-Pei Li,  You-Sheng Lin,  Fenglai Liu,  
 Kuan-Yu Liu,  E. Livshits,  M. Loipersberger,  A. Luenser,  P. Manohar,  
 E. Mansoor,  S. F. Manzer,  Shan-Ping Mao,  Yuezhi Mao,  N. Mardirossian,  
 A. V. Marenich,  T. Markovich,  L. A. Martinez-Martinez,  S. A. Maurer,  
 N. J. Mayhall,  S. C. McKenzie,  J.-M. Mewes,  P. Morgante,  A. F. Morrison,  
 J. W. Mullinax,  K. Nanda,  T. S. Nguyen-Beck,  R. Olivares-Amaya,  
 K. J. Oosterbaan,  J. A. Parkhill,  S. K. Paul,  F. Pavosevic,  Zheng Pei,  
 T. M. Perrine,  F. Plasser,  P. Pokhilko,  S. Prager,  A. Prociuk,  
 E. Ramos,  B. Rana,  D. R. Rehn,  F. Rob,  M. Scheurer,  M. Schneider,  
 N. Sergueev,  S. M. Sharada,  S. Sharma,  D. W. Small,  T. Stauch,  
 C. J. Stein,  T. Stein,  Yu-Chuan Su,  S. P. Veccham,  Zhen Tao,  
 A. J. W. Thom,  A. Tkatchenko,  T. Tsuchimochi,  N. M. Tubman,  L. Vogt,  
 M. L. Vidal,  O. Vydrov,  M. A. Watson,  J. Wenzel,  M. de Wergifosse,  
 T. A. Wesolowski,  A. White,  J. Witte,  A. Yamada,  Jun Yang,  K. Yao,  
 S. Yeganeh,  S. R. Yost,  Zhi-Qiang You,  A. Zech,  Igor Ying Zhang,  
 Xing Zhang,  Yan Zhao,  Ying Zhu,  B. R. Brooks,  G. K. L. Chan,  
 C. J. Cramer,  M. S. Gordon,  W. J. Hehre,  A. Klamt,  M. W. Schmidt,  
 C. D. Sherrill,  D. G. Truhlar,  A. Aspuru-Guzik,  R. Baer,  A. T. Bell,  
 N. A. Besley,  Jeng-Da Chai,  A. E. DePrince, III,  R. A. DiStasio Jr.,  
 A. Dreuw,  B. D. Dunietz,  T. R. Furlani,  Chao-Ping Hsu,  Yousung Jung,  
 Jing Kong,  D. S. Lambrecht,  WanZhen Liang,  C. Ochsenfeld,  
 V. A. Rassolov,  L. V. Slipchenko,  J. E. Subotnik,  T. Van Voorhis,  
 J. M. Herbert,  A. I. Krylov,  P. M. W. Gill,  M. Head-Gordon

 Contributors to earlier versions of Q-Chem not listed above: 
 R. D. Adamson,  B. Austin,  J. Baker,  G. J. O. Beran,  K. Brandhorst,  
 S. T. Brown,  E. F. C. Byrd,  A. K. Chakraborty,  C.-L. Cheng,  
 Siu Hung Chien,  D. M. Chipman,  D. L. Crittenden,  H. Dachsel,  
 R. J. Doerksen,  A. D. Dutoi,  L. Fusti-Molnar,  W. A. Goddard III,  
 A. Golubeva-Zadorozhnaya,  S. R. Gwaltney,  G. Hawkins,  A. Heyden,  
 S. Hirata,  G. Kedziora,  F. J. Keil,  C. Kelley,  Jihan Kim,  R. A. King,  
 R. Z. Khaliullin,  P. P. Korambath,  W. Kurlancheek,  A. M. Lee,  M. S. Lee,  
 S. V. Levchenko,  Ching Yeh Lin,  D. Liotard,  R. C. Lochan,  I. Lotan,  
 P. E. Maslen,  N. Nair,  D. P. O'Neill,  D. Neuhauser,  E. Neuscamman,  
 C. M. Oana,  R. Olson,  B. Peters,  R. Peverati,  P. A. Pieniazek,  
 Y. M. Rhee,  J. Ritchie,  M. A. Rohrdanz,  E. Rosta,  N. J. Russ,  
 H. F. Schaefer III,  N. E. Schultz,  N. Shenvi,  A. C. Simmonett,  A. Sodt,  
 D. Stuck,  K. S. Thanthiriwatte,  V. Vanovschi,  Tao Wang,  A. Warshel,  
 C. F. Williams,  Q. Wu,  X. Xu,  W. Zhang

 Please cite Q-Chem as follows:
 Y. Shao et al., Mol. Phys. 113, 184-215 (2015)
 DOI: 10.1080/00268976.2014.952696

 Q-Chem 5.3.0 for Intel X86 EM64T Linux

 Parts of Q-Chem use Armadillo 9.800.1 (Horizon Scraper).
 http://arma.sourceforge.net/

 Q-Chem begins on Sun Jul 12 20:26:14 2020  

Host: centos77-c2
0

     Scratch files written to /tmp/28905.centos77-h1/qchem122866//
Processing $rem in /opt/qchem-5.3.0-intel2020u1//config/preferences:
Processing $rem in /home/shihchengli/.qchemrc:

Checking the input file for inconsistencies... 	...done.

--------------------------------------------------------------
User input:
--------------------------------------------------------------
$rem
   JOBTYPE  sp
   EXCHANGE   omegaB97X-D
   BASIS   6-311+G(2df,2pd)
   UNRESTRICTED   True
   max_scf_cycles   250
   geom_opt_max_cycles   1500
   basis2 6-31G*
   scf_algorithm rca_diis
   SYM_IGNORE  TRUE
   print_input   true
   geom_opt_dmax   80
   pop_mulliken false
   XC_GRID 000075000302
$end

$molecule
0 2
N       -0.0007343518     -0.0207944778     0.0000000000
O       0.0000668944     -1.1736391502     -0.0000000000
O       -0.9302021947     0.5950727444     -0.0000000000
O       0.9308699340     0.5954328056     -0.0000000000
$end
--------------------------------------------------------------
 ----------------------------------------------------------------
             Standard Nuclear Orientation (Angstroms)
    I     Atom           X                Y                Z
 ----------------------------------------------------------------
    1      N      -0.0007343518    -0.0207944778     0.0000000000
    2      O       0.0000668944    -1.1736391502     0.0000000000
    3      O      -0.9302021947     0.5950727444     0.0000000000
    4      O       0.9308699340     0.5954328056     0.0000000000
 ----------------------------------------------------------------
 Nuclear Repulsion Energy =         130.90017115 hartrees
 There are       16 alpha and       15 beta electrons
 Requested basis set is 6-311+G(2df,2pd)
 There are 32 shells and 136 basis functions

 Total QAlloc Memory Limit   2000 MB
 Mega-Array Size       188 MB
 MEM_STATIC part       192 MB

                       Distance Matrix (Angstroms)
             N (  1)   O (  2)   O (  3)
   O (  2)  1.152845
   O (  3)  1.114990  1.998435
   O (  4)  1.116970  1.999002  1.861072
 
 A cutoff of  1.0D-09 yielded    521 shell pairs
 There are      9557 function pairs (     12623 Cartesian)
 Smallest overlap matrix eigenvalue = 8.68E-04

 Scale SEOQF with 1.000000e-01/1.000000e-01/1.000000e-01

 Standard Electronic Orientation quadrupole field applied
 Nucleus-field energy     =     0.0000000017 hartrees
 Requested basis set is 6-31G(d)
 There are 16 shells and 56 basis functions
 A cutoff of  1.0D-09 yielded    133 shell pairs
 There are      1681 function pairs (      1935 Cartesian)
 Smallest overlap matrix eigenvalue = 4.04E-03
 Guess from superposition of atomic densities
 Warning:  Energy on first SCF cycle will be non-variational
 SAD guess density has 31.000000 electrons
 Long-range K will be added via erf
 Coulomb attenuation parameter = 0.2 bohr**(-1)
 An unrestricted hybrid HF-DFT SCF calculation will be
 performed using Relaxed Constraint Minimization + Pulay DIIS
 Exchange:     0.2220 Hartree-Fock + 1.0000 wB97X-D + LR-HF
 Correlation:  1.0000 wB97X-D
 Using Euler-Maclaurin-Lebedev (75,302) quadrature formula
 Dispersion:   Grimme D
 SCF converges when DIIS error is below 1.0E-04
 using 6 threads for integral computing
 -------------------------------------------------------
 OpenMP Integral computing Module                
 Release: version 1.0, May 2013, Q-Chem Inc. Pittsburgh 
 -------------------------------------------------------
 using 6 threads for integral computing
 -------------------------------------------------------
 OpenMP Integral computing Module                
 Release: version 1.0, May 2013, Q-Chem Inc. Pittsburgh 
 -------------------------------------------------------
 ---------------------------------------
  Cycle       Energy         DIIS Error
 ---------------------------------------
    1    -281.8498490953      1.48E-01
    2    -279.8968143977      2.37E-02
    3    -279.9682752977      2.90E-03
    4    -280.0476563905      2.66E-03
    5    -280.0484680820      6.64E-04 Done RCA. Switching to DIIS
    6    -280.0495915020      8.89E-04
    7    -280.0498467389      4.48E-05 Convergence criterion met
 ---------------------------------------
 <S^2> = 0.7541
 SCF time:  CPU 13.94 s  wall 3.27 s
 SCF   energy in the small basis set = -280.04984674
 Total energy in the small basis set = -280.04984674
 ----------------------------------------------------
  Cycle       Energy    
 ----------------------------------------------------
    1     -28.6438341379     -2.86E+01
 Long-range K will be added via erf
 Coulomb attenuation parameter = 0.2 bohr**(-1)
 An unrestricted hybrid HF-DFT SCF calculation will be
 performed using Relaxed Constraint Minimization + Pulay DIIS
 Exchange:     0.2220 Hartree-Fock + 1.0000 wB97X-D + LR-HF
 Correlation:  1.0000 wB97X-D
 Using Euler-Maclaurin-Lebedev (75,302) quadrature formula
 Dispersion:   Grimme D
 SCF converges when DIIS error is below 1.0E-05
 Basis2 calculation detected. Using small basis as guess for larger.
 SCFMinFind is unable to tell whether the solution found is close.
 Resetting ReadMinima to 0 and attempting to follow guess.
 SCFMinFind following SCF Guess.
 using 6 threads for integral computing
 -------------------------------------------------------
 OpenMP Integral computing Module                
 Release: version 1.0, May 2013, Q-Chem Inc. Pittsburgh 
 -------------------------------------------------------
 using 6 threads for integral computing
 -------------------------------------------------------
 OpenMP Integral computing Module                
 Release: version 1.0, May 2013, Q-Chem Inc. Pittsburgh 
 -------------------------------------------------------
 ---------------------------------------
  Cycle       Energy         DIIS Error
 ---------------------------------------
    1    -280.1337567418      9.83E-03
    2    -280.1484427209      3.93E-03
    3    -280.1563789057      1.14E-03
    4    -280.1675631699      9.51E-04 Done RCA. Switching to DIIS
    5    -280.1675522149      9.79E-04
    6    -280.1687672748      7.22E-05
    7    -280.1687951401      3.80E-05
    8    -280.1688130435      2.45E-05
    9    -280.1688193014      1.51E-05
   10    -280.1688226426      1.08E-06 Convergence criterion met
 ---------------------------------------
 <S^2> = 0.7556
 SCF time:  CPU 42.84 s  wall 8.57 s
 SCF   energy in the final basis set = -280.16882264
 Total energy in the final basis set = -280.16882264
 
 --------------------------------------------------------------
 
                    Orbital Energies (a.u.)
 --------------------------------------------------------------
 
 Alpha MOs
 -- Occupied --
-19.3690 -19.3687 -19.3435 -14.7792  -1.5794  -1.3133  -1.3110  -0.8035
 -0.7710  -0.7261  -0.7253  -0.5578  -0.5248  -0.4968  -0.4858  -0.4465
 -- Virtual --
  0.0278   0.0909   0.1361   0.1371   0.1534   0.2395   0.2409   0.2410
  0.2593   0.2609   0.3326   0.3366   0.3453   0.3506   0.3593   0.3955
  0.4361   0.4419   0.5453   0.5785   0.7534   0.8245   0.8618   0.9092
  0.9725   1.0138   1.0209   1.0377   1.0502   1.0526   1.0854   1.0972
  1.1203   1.1471   1.1924   1.3354   1.4112   1.4950   1.5647   1.5827
  1.5833   1.5904   1.6512   1.6541   1.9152   1.9751   2.0388   2.0423
  2.1815   2.3740   2.4301   2.5413   2.5532   2.5840   2.8024   2.8828
  3.5981   3.5988   3.6311   3.8144   3.9057   4.1331   4.2173   4.2252
  4.2846   4.3116   4.3155   4.3241   4.5184   4.6294   4.6414   4.9835
  4.9860   4.9908   5.0150   5.0186   5.0187   5.0556   5.0852   5.1391
  5.1450   5.1736   5.1901   5.2316   5.3678   5.4843   5.4960   5.7109
  5.8360   5.9597   5.9771   6.1113   6.5531   6.7095   6.7187   6.7717
  6.7803   6.7914   6.8005   6.9111   6.9597   6.9944   7.0507   7.1157
  7.1554   7.1651   7.2501   7.2901   7.4571   7.6011   7.6983   7.7022
  7.9873   8.2051   8.2264   8.6725  36.7025  50.2071  50.3812  50.4742
 
 Beta MOs
 -- Occupied --
-19.3579 -19.3578 -19.3370 -14.7800  -1.5670  -1.2950  -1.2902  -0.8003
 -0.7506  -0.7009  -0.6961  -0.4906  -0.4820  -0.4760  -0.4654
 -- Virtual --
 -0.1524   0.0319   0.0901   0.1348   0.1353   0.1533   0.2388   0.2408
  0.2412   0.2587   0.2602   0.3337   0.3354   0.3441   0.3507   0.3595
  0.4033   0.4394   0.4439   0.5590   0.5920   0.7525   0.8273   0.8678
  0.9169   0.9740   1.0158   1.0249   1.0538   1.0574   1.0579   1.0925
  1.1052   1.1222   1.1676   1.1959   1.3446   1.4244   1.5155   1.5767
  1.5905   1.5967   1.6004   1.6608   1.6703   1.9300   1.9889   2.0417
  2.0516   2.2036   2.3785   2.4350   2.5480   2.5589   2.5910   2.8182
  2.8958   3.5965   3.5987   3.6312   3.8174   3.9089   4.1340   4.2267
  4.2386   4.2908   4.3114   4.3227   4.3243   4.5273   4.6422   4.6451
  5.0022   5.0177   5.0273   5.0349   5.0386   5.0455   5.0817   5.1122
  5.1458   5.1638   5.1829   5.1974   5.2519   5.3914   5.5083   5.5155
  5.7219   5.8502   5.9690   5.9916   6.1283   6.5801   6.7458   6.7596
  6.7965   6.8088   6.8254   6.8400   6.9187   6.9888   7.0013   7.0840
  7.1227   7.1641   7.1707   7.2617   7.3000   7.4845   7.6200   7.7088
  7.7186   8.0024   8.2099   8.2337   8.6951  36.7019  50.2156  50.3880
 50.4839
 --------------------------------------------------------------
 
 -----------------------------------------------------------------
                    Cartesian Multipole Moments
 -----------------------------------------------------------------
    Charge (ESU x 10^10)
                 0.0000
    Dipole Moment (Debye)
         X      -0.0022      Y       0.3568      Z       0.0000
       Tot       0.3568
    Quadrupole Moments (Debye-Ang)
        XX     -22.1235     XY      -0.0003     YY     -22.8242
        XZ       0.0000     YZ       0.0000     ZZ     -19.4542
    Octopole Moments (Debye-Ang^2)
       XXX      -0.0026    XXY      -0.6739    XYY      -0.0019
       YYY       2.1917    XXZ       0.0000    XYZ       0.0000
       YYZ       0.0000    XZZ      -0.0075    YZZ       0.2235
       ZZZ       0.0000
    Hexadecapole Moments (Debye-Ang^3)
      XXXX     -71.1748   XXXY      -0.0132   XXYY     -25.9568
      XYYY      -0.0121   YYYY     -83.5807   XXXZ      -0.0000
      XXYZ       0.0000   XYYZ       0.0000   YYYZ       0.0000
      XXZZ     -14.3168   XYZZ      -0.0070   YYZZ     -16.3035
      XZZZ      -0.0000   YZZZ       0.0000   ZZZZ     -14.1333
 -----------------------------------------------------------------
Archival summary:
1\1\centos77-c2\SP\ProcedureUnspecified\BasisUnspecified\31(2)\shihchen\SunJul1220:26:282020SunJul1220:26:282020\0\\#,ProcedureUnspecified,BasisUnspecified,\\0,2\N\O,1,1.11499\O,1,1.11697,2,112.988\O,1,1.15284,2,123.568,3,-180,0\\\@

 Total job time:  13.99s(wall), 61.13s(cpu) 
 Sun Jul 12 20:26:28 2020

        *************************************************************
        *                                                           *
        *  Thank you very much for using Q-Chem.  Have a nice day.  *
        *                                                           *
        *************************************************************


