                  Welcome to Q-Chem
     A Quantum Leap Into The Future Of Chemistry


 Q-Chem 5.3 (devel), Q-Chem, Inc., Pleasanton, CA (2020)

 Yihan Shao,  Zhengting Gan,  E. Epifanovsky,  A. T. B. Gilbert,  M. Wormit,  
 J. Kussmann,  A. W. Lange,  A. Behn,  Jia Deng,  Xintian Feng,  D. Ghosh,  
 M. Goldey,  P. R. Horn,  L. D. Jacobson,  I. Kaliman,  T. Kus,  A. Landau,  
 Jie Liu,  E. I. Proynov,  R. M. Richard,  R. P. Steele,  E. J. Sundstrom,  
 H. L. Woodcock III,  P. M. Zimmerman,  D. Zuev,  B. Alam,  B. Albrecht,  
 E. Alguire,  S. A. Baeppler,  D. Barton,  Z. Benda,  Y. A. Bernard,  
 E. J. Berquist,  K. B. Bravaya,  H. Burton,  K. Carter-Fenk,  D. Casanova,  
 Chun-Min Chang,  Yunqing Chen,  A. Chien,  K. D. Closser,  M. P. Coons,  
 S. Coriani,  S. Dasgupta,  A. L. Dempwolff,  M. Diedenhofen,  Hainam Do,  
 R. G. Edgar,  Po-Tung Fang,  S. Faraji,  S. Fatehi,  Qingguo Feng,  
 J. Fosso-Tande,  J. Gayvert,  Qinghui Ge,  A. Ghysels,  G. Gidofalvi,  
 J. Gomes,  J. Gonthier,  A. Gunina,  D. Hait,  M. W. D. Hanson-Heine,  
 P. H. P. Harbach,  A. W. Hauser,  M. F. Herbst,  J. E. Herr,  
 E. G. Hohenstein,  Z. C. Holden,  Kerwin Hui,  B. C. Huynh,  T.-C. Jagau,  
 Hyunjun Ji,  B. Kaduk,  K. Khistyaev,  Jaehoon Kim,  P. Klunzinger,  K. Koh,  
 D. Kosenkov,  L. Koulias,  T. Kowalczyk,  C. M. Krauter,  A. Kunitsa,  
 Ka Un Lao,  A. Laurent,  K. V. Lawler,  Joonho Lee,  D. Lefrancois,  
 S. Lehtola,  D. S. Levine,  Yi-Pei Li,  You-Sheng Lin,  Fenglai Liu,  
 Kuan-Yu Liu,  E. Livshits,  M. Loipersberger,  A. Luenser,  P. Manohar,  
 E. Mansoor,  S. F. Manzer,  Shan-Ping Mao,  Yuezhi Mao,  N. Mardirossian,  
 A. V. Marenich,  T. Markovich,  L. A. Martinez-Martinez,  S. A. Maurer,  
 N. J. Mayhall,  S. C. McKenzie,  J.-M. Mewes,  P. Morgante,  A. F. Morrison,  
 J. W. Mullinax,  K. Nanda,  T. S. Nguyen-Beck,  R. Olivares-Amaya,  
 K. J. Oosterbaan,  J. A. Parkhill,  S. K. Paul,  F. Pavosevic,  Zheng Pei,  
 T. M. Perrine,  F. Plasser,  P. Pokhilko,  S. Prager,  A. Prociuk,  
 E. Ramos,  B. Rana,  D. R. Rehn,  F. Rob,  M. Scheurer,  M. Schneider,  
 N. Sergueev,  S. M. Sharada,  S. Sharma,  D. W. Small,  T. Stauch,  
 C. J. Stein,  T. Stein,  Yu-Chuan Su,  S. P. Veccham,  Zhen Tao,  
 A. J. W. Thom,  A. Tkatchenko,  T. Tsuchimochi,  N. M. Tubman,  L. Vogt,  
 M. L. Vidal,  O. Vydrov,  M. A. Watson,  J. Wenzel,  M. de Wergifosse,  
 T. A. Wesolowski,  A. White,  J. Witte,  A. Yamada,  Jun Yang,  K. Yao,  
 S. Yeganeh,  S. R. Yost,  Zhi-Qiang You,  A. Zech,  Igor Ying Zhang,  
 Xing Zhang,  Yan Zhao,  Ying Zhu,  B. R. Brooks,  G. K. L. Chan,  
 C. J. Cramer,  M. S. Gordon,  W. J. Hehre,  A. Klamt,  M. W. Schmidt,  
 C. D. Sherrill,  D. G. Truhlar,  A. Aspuru-Guzik,  R. Baer,  A. T. Bell,  
 N. A. Besley,  Jeng-Da Chai,  A. E. DePrince, III,  R. A. DiStasio Jr.,  
 A. Dreuw,  B. D. Dunietz,  T. R. Furlani,  Chao-Ping Hsu,  Yousung Jung,  
 Jing Kong,  D. S. Lambrecht,  WanZhen Liang,  C. Ochsenfeld,  
 V. A. Rassolov,  L. V. Slipchenko,  J. E. Subotnik,  T. Van Voorhis,  
 J. M. Herbert,  A. I. Krylov,  P. M. W. Gill,  M. Head-Gordon

 Contributors to earlier versions of Q-Chem not listed above: 
 R. D. Adamson,  B. Austin,  J. Baker,  G. J. O. Beran,  K. Brandhorst,  
 S. T. Brown,  E. F. C. Byrd,  A. K. Chakraborty,  C.-L. Cheng,  
 Siu Hung Chien,  D. M. Chipman,  D. L. Crittenden,  H. Dachsel,  
 R. J. Doerksen,  A. D. Dutoi,  L. Fusti-Molnar,  W. A. Goddard III,  
 A. Golubeva-Zadorozhnaya,  S. R. Gwaltney,  G. Hawkins,  A. Heyden,  
 S. Hirata,  G. Kedziora,  F. J. Keil,  C. Kelley,  Jihan Kim,  R. A. King,  
 R. Z. Khaliullin,  P. P. Korambath,  W. Kurlancheek,  A. M. Lee,  M. S. Lee,  
 S. V. Levchenko,  Ching Yeh Lin,  D. Liotard,  R. C. Lochan,  I. Lotan,  
 P. E. Maslen,  N. Nair,  D. P. O'Neill,  D. Neuhauser,  E. Neuscamman,  
 C. M. Oana,  R. Olson,  B. Peters,  R. Peverati,  P. A. Pieniazek,  
 Y. M. Rhee,  J. Ritchie,  M. A. Rohrdanz,  E. Rosta,  N. J. Russ,  
 H. F. Schaefer III,  N. E. Schultz,  N. Shenvi,  A. C. Simmonett,  A. Sodt,  
 D. Stuck,  K. S. Thanthiriwatte,  V. Vanovschi,  Tao Wang,  A. Warshel,  
 C. F. Williams,  Q. Wu,  X. Xu,  W. Zhang

 Please cite Q-Chem as follows:
 Y. Shao et al., Mol. Phys. 113, 184-215 (2015)
 DOI: 10.1080/00268976.2014.952696

 Q-Chem 5.3.0 for Intel X86 EM64T Linux

 Parts of Q-Chem use Armadillo 9.800.1 (Horizon Scraper).
 http://arma.sourceforge.net/

 Q-Chem begins on Sun Jul 12 20:28:40 2020  

Host: centos77-c2
0

     Scratch files written to /tmp/28905.centos77-h1/qchem123456//
Processing $rem in /opt/qchem-5.3.0-intel2020u1//config/preferences:
Processing $rem in /home/shihchengli/.qchemrc:

Checking the input file for inconsistencies... 	...done.

--------------------------------------------------------------
User input:
--------------------------------------------------------------
$rem
   JOBTYPE  sp
   EXCHANGE   omegaB97X-D
   BASIS   6-311+G(2df,2pd)
   UNRESTRICTED   True
   max_scf_cycles   250
   geom_opt_max_cycles   1500
   basis2 6-31G*
   scf_algorithm rca_diis
   SYM_IGNORE  TRUE
   print_input   true
   geom_opt_dmax   80
   pop_mulliken false
   XC_GRID 000075000302
$end

$molecule
0 2
N       -0.0002984394     0.0317655573     0.0000000000
O       0.0001754513     -1.3221338037     -0.0000000000
O       -1.0085388668     0.6432778348     -0.0000000000
O       1.0086621367     0.6431623336     -0.0000000000
$end
--------------------------------------------------------------
 ----------------------------------------------------------------
             Standard Nuclear Orientation (Angstroms)
    I     Atom           X                Y                Z
 ----------------------------------------------------------------
    1      N      -0.0002984394     0.0317655573     0.0000000000
    2      O       0.0001754513    -1.3221338037     0.0000000000
    3      O      -1.0085388668     0.6432778348     0.0000000000
    4      O       1.0086621367     0.6431623336     0.0000000000
 ----------------------------------------------------------------
 Nuclear Repulsion Energy =         119.58892456 hartrees
 There are       16 alpha and       15 beta electrons
 Requested basis set is 6-311+G(2df,2pd)
 There are 32 shells and 136 basis functions

 Total QAlloc Memory Limit   2000 MB
 Mega-Array Size       188 MB
 MEM_STATIC part       192 MB

                       Distance Matrix (Angstroms)
             N (  1)   O (  2)   O (  3)
   O (  2)  1.353899
   O (  3)  1.179193  2.209151
   O (  4)  1.179749  2.208944  2.017201
 
 A cutoff of  1.0D-09 yielded    513 shell pairs
 There are      9497 function pairs (     12559 Cartesian)
 Smallest overlap matrix eigenvalue = 1.11E-03

 Scale SEOQF with 1.000000e-01/1.000000e-01/1.000000e-01

 Standard Electronic Orientation quadrupole field applied
 Nucleus-field energy     =     0.0000000021 hartrees
 Requested basis set is 6-31G(d)
 There are 16 shells and 56 basis functions
 A cutoff of  1.0D-09 yielded    133 shell pairs
 There are      1681 function pairs (      1935 Cartesian)
 Smallest overlap matrix eigenvalue = 5.46E-03
 Guess from superposition of atomic densities
 Warning:  Energy on first SCF cycle will be non-variational
 SAD guess density has 31.000000 electrons
 Long-range K will be added via erf
 Coulomb attenuation parameter = 0.2 bohr**(-1)
 An unrestricted hybrid HF-DFT SCF calculation will be
 performed using Relaxed Constraint Minimization + Pulay DIIS
 Exchange:     0.2220 Hartree-Fock + 1.0000 wB97X-D + LR-HF
 Correlation:  1.0000 wB97X-D
 Using Euler-Maclaurin-Lebedev (75,302) quadrature formula
 Dispersion:   Grimme D
 SCF converges when DIIS error is below 1.0E-04
 using 6 threads for integral computing
 -------------------------------------------------------
 OpenMP Integral computing Module                
 Release: version 1.0, May 2013, Q-Chem Inc. Pittsburgh 
 -------------------------------------------------------
 using 6 threads for integral computing
 -------------------------------------------------------
 OpenMP Integral computing Module                
 Release: version 1.0, May 2013, Q-Chem Inc. Pittsburgh 
 -------------------------------------------------------
 ---------------------------------------
  Cycle       Energy         DIIS Error
 ---------------------------------------
    1    -280.9919461569      1.15E-01
    2    -279.8925805868      2.61E-02
    3    -279.9757452360      5.55E-03
    4    -280.0837227829      6.94E-03
    5    -280.0891480254      1.99E-03
    6    -280.0967900195      2.21E-03
    7    -280.0976317091      3.08E-04 Done RCA. Switching to DIIS
    8    -280.0988964698      7.04E-04
    9    -280.0994464964      2.36E-04
   10    -280.0998097690      8.12E-05 Convergence criterion met
 ---------------------------------------
 <S^2> = 0.7555
 SCF time:  CPU 19.64 s  wall 4.66 s
 SCF   energy in the small basis set = -280.09980977
 Total energy in the small basis set = -280.09980977
 ----------------------------------------------------
  Cycle       Energy    
 ----------------------------------------------------
    1     -28.3567720248     -2.84E+01
 Long-range K will be added via erf
 Coulomb attenuation parameter = 0.2 bohr**(-1)
 An unrestricted hybrid HF-DFT SCF calculation will be
 performed using Relaxed Constraint Minimization + Pulay DIIS
 Exchange:     0.2220 Hartree-Fock + 1.0000 wB97X-D + LR-HF
 Correlation:  1.0000 wB97X-D
 Using Euler-Maclaurin-Lebedev (75,302) quadrature formula
 Dispersion:   Grimme D
 SCF converges when DIIS error is below 1.0E-05
 Basis2 calculation detected. Using small basis as guess for larger.
 SCFMinFind is unable to tell whether the solution found is close.
 Resetting ReadMinima to 0 and attempting to follow guess.
 SCFMinFind following SCF Guess.
 using 6 threads for integral computing
 -------------------------------------------------------
 OpenMP Integral computing Module                
 Release: version 1.0, May 2013, Q-Chem Inc. Pittsburgh 
 -------------------------------------------------------
 using 6 threads for integral computing
 -------------------------------------------------------
 OpenMP Integral computing Module                
 Release: version 1.0, May 2013, Q-Chem Inc. Pittsburgh 
 -------------------------------------------------------
 ---------------------------------------
  Cycle       Energy         DIIS Error
 ---------------------------------------
    1    -280.1576814824      1.02E-02
    2    -280.1166562148      7.58E-03
    3    -280.1508357843      2.37E-03
    4    -280.1938551457      9.52E-04 Done RCA. Switching to DIIS
    5    -280.2017992278      2.07E-03
    6    -280.2090312928      1.95E-04
    7    -280.2091633236      1.42E-04
    8    -280.2093916547      1.06E-04
    9    -280.2095437387      8.18E-05
   10    -280.2097068870      3.50E-05
   11    -280.2097305054      1.43E-05
   12    -280.2097326356      2.57E-06 Convergence criterion met
 ---------------------------------------
 <S^2> = 0.7572
 SCF time:  CPU 52.99 s  wall 10.65 s
 SCF   energy in the final basis set = -280.20973264
 Total energy in the final basis set = -280.20973264
 
 --------------------------------------------------------------
 
                    Orbital Energies (a.u.)
 --------------------------------------------------------------
 
 Alpha MOs
 -- Occupied --
-19.4036 -19.3682 -19.3682 -14.7829  -1.4779  -1.2616  -1.2229  -0.7939
 -0.7360  -0.7197  -0.6986  -0.5475  -0.5196  -0.4937  -0.4785  -0.4582
 -- Virtual --
 -0.0270   0.0798   0.1377   0.1383   0.1541   0.1577   0.2402   0.2406
  0.2542   0.2587   0.2610   0.3243   0.3351   0.3407   0.3472   0.3498
  0.4226   0.4259   0.4404   0.4657   0.7552   0.8165   0.8356   0.9095
  0.9732   0.9916   1.0274   1.0626   1.0655   1.0689   1.0708   1.0957
  1.1077   1.1525   1.1761   1.3302   1.4143   1.4655   1.5138   1.5144
  1.5881   1.5881   1.5897   1.6106   1.7854   1.7864   1.9247   1.9476
  1.9987   2.2707   2.2770   2.3522   2.5047   2.5055   2.6932   2.7179
  3.6026   3.6666   3.6746   3.6774   3.7936   3.9818   4.0313   4.0842
  4.4075   4.4338   4.4660   4.5171   4.5488   4.6050   4.6799   4.9879
  4.9880   4.9920   5.0029   5.0126   5.0204   5.0268   5.0478   5.0625
  5.0979   5.1269   5.1279   5.1574   5.1655   5.2826   5.3494   5.3809
  5.4966   5.6075   5.8067   5.8658   5.9511   6.1764   6.2998   6.6355
  6.6489   6.6515   6.7221   6.7543   6.7685   6.7759   6.8145   6.8252
  7.0019   7.1281   7.1976   7.1999   7.2000   7.3712   7.5007   7.6321
  7.7338   7.8056   7.8908   8.0806  36.1855  49.9762  50.1747  50.2716
 
 Beta MOs
 -- Occupied --
-19.3880 -19.3624 -19.3624 -14.7838  -1.4697  -1.2487  -1.1863  -0.7744
 -0.7343  -0.6985  -0.6816  -0.4779  -0.4738  -0.4713  -0.4446
 -- Virtual --
 -0.1764  -0.0237   0.0820   0.1365   0.1378   0.1572   0.1628   0.2397
  0.2419   0.2574   0.2582   0.2602   0.3257   0.3337   0.3394   0.3466
  0.3486   0.4336   0.4352   0.4429   0.4690   0.7545   0.8181   0.8437
  0.9141   0.9756   0.9933   1.0300   1.0677   1.0709   1.0735   1.0853
  1.1001   1.1189   1.1712   1.1797   1.3357   1.4387   1.4766   1.5220
  1.5417   1.5970   1.5976   1.5977   1.6222   1.7990   1.8092   1.9347
  1.9510   2.0105   2.2744   2.2814   2.3648   2.5089   2.5099   2.7085
  2.7280   3.6021   3.6665   3.6741   3.6786   3.7954   3.9815   4.0426
  4.0899   4.4129   4.4401   4.4716   4.5161   4.5545   4.6079   4.6789
  5.0051   5.0076   5.0286   5.0346   5.0414   5.0429   5.0622   5.0739
  5.0999   5.1115   5.1409   5.1465   5.1629   5.1891   5.3020   5.3646
  5.3974   5.5058   5.6223   5.8154   5.8787   5.9766   6.1847   6.3184
  6.6497   6.6519   6.6635   6.7710   6.7760   6.7996   6.8267   6.8409
  6.8454   7.0359   7.1438   7.2051   7.2057   7.2175   7.4081   7.5201
  7.6401   7.7504   7.8147   7.9030   8.0837  36.1845  49.9922  50.1799
 50.2767
 --------------------------------------------------------------
 
 -----------------------------------------------------------------
                    Cartesian Multipole Moments
 -----------------------------------------------------------------
    Charge (ESU x 10^10)
                -0.0000
    Dipole Moment (Debye)
         X      -0.0018      Y      -0.1697      Z       0.0000
       Tot       0.1697
    Quadrupole Moments (Debye-Ang)
        XX     -22.8161     XY       0.0006     YY     -22.4617
        XZ       0.0000     YZ       0.0000     ZZ     -20.1108
    Octopole Moments (Debye-Ang^2)
       XXX      -0.0024    XXY      -0.9276    XYY      -0.0016
       YYY       0.7544    XXZ       0.0000    XYZ       0.0000
       YYZ      -0.0000    XZZ      -0.0027    YZZ       0.6506
       ZZZ       0.0000
    Hexadecapole Moments (Debye-Ang^3)
      XXXX     -83.0354   XXXY       0.0044   XXYY     -29.5524
      XYYY       0.0056   YYYY     -97.5046   XXXZ       0.0000
      XXYZ       0.0000   XYYZ       0.0000   YYYZ       0.0000
      XXZZ     -16.1648   XYZZ       0.0004   YYZZ     -19.4329
      XZZZ       0.0000   YZZZ       0.0000   ZZZZ     -15.1509
 -----------------------------------------------------------------
Archival summary:
1\1\centos77-c2\SP\ProcedureUnspecified\BasisUnspecified\31(2)\shihchen\SunJul1220:28:582020SunJul1220:28:582020\0\\#,ProcedureUnspecified,BasisUnspecified,\\0,2\N\O,1,1.17919\O,1,1.17975,2,117.548\O,1,1.3539,2,121.257,3,-180,0\\\@

 Total job time:  17.44s(wall), 76.99s(cpu) 
 Sun Jul 12 20:28:58 2020

        *************************************************************
        *                                                           *
        *  Thank you very much for using Q-Chem.  Have a nice day.  *
        *                                                           *
        *************************************************************


