                  Welcome to Q-Chem
     A Quantum Leap Into The Future Of Chemistry


 Q-Chem 5.3 (devel), Q-Chem, Inc., Pleasanton, CA (2020)

 Yihan Shao,  Zhengting Gan,  E. Epifanovsky,  A. T. B. Gilbert,  M. Wormit,  
 J. Kussmann,  A. W. Lange,  A. Behn,  Jia Deng,  Xintian Feng,  D. Ghosh,  
 M. Goldey,  P. R. Horn,  L. D. Jacobson,  I. Kaliman,  T. Kus,  A. Landau,  
 Jie Liu,  E. I. Proynov,  R. M. Richard,  R. P. Steele,  E. J. Sundstrom,  
 H. L. Woodcock III,  P. M. Zimmerman,  D. Zuev,  B. Alam,  B. Albrecht,  
 E. Alguire,  S. A. Baeppler,  D. Barton,  Z. Benda,  Y. A. Bernard,  
 E. J. Berquist,  K. B. Bravaya,  H. Burton,  K. Carter-Fenk,  D. Casanova,  
 Chun-Min Chang,  Yunqing Chen,  A. Chien,  K. D. Closser,  M. P. Coons,  
 S. Coriani,  S. Dasgupta,  A. L. Dempwolff,  M. Diedenhofen,  Hainam Do,  
 R. G. Edgar,  Po-Tung Fang,  S. Faraji,  S. Fatehi,  Qingguo Feng,  
 J. Fosso-Tande,  J. Gayvert,  Qinghui Ge,  A. Ghysels,  G. Gidofalvi,  
 J. Gomes,  J. Gonthier,  A. Gunina,  D. Hait,  M. W. D. Hanson-Heine,  
 P. H. P. Harbach,  A. W. Hauser,  M. F. Herbst,  J. E. Herr,  
 E. G. Hohenstein,  Z. C. Holden,  Kerwin Hui,  B. C. Huynh,  T.-C. Jagau,  
 Hyunjun Ji,  B. Kaduk,  K. Khistyaev,  Jaehoon Kim,  P. Klunzinger,  K. Koh,  
 D. Kosenkov,  L. Koulias,  T. Kowalczyk,  C. M. Krauter,  A. Kunitsa,  
 Ka Un Lao,  A. Laurent,  K. V. Lawler,  Joonho Lee,  D. Lefrancois,  
 S. Lehtola,  D. S. Levine,  Yi-Pei Li,  You-Sheng Lin,  Fenglai Liu,  
 Kuan-Yu Liu,  E. Livshits,  M. Loipersberger,  A. Luenser,  P. Manohar,  
 E. Mansoor,  S. F. Manzer,  Shan-Ping Mao,  Yuezhi Mao,  N. Mardirossian,  
 A. V. Marenich,  T. Markovich,  L. A. Martinez-Martinez,  S. A. Maurer,  
 N. J. Mayhall,  S. C. McKenzie,  J.-M. Mewes,  P. Morgante,  A. F. Morrison,  
 J. W. Mullinax,  K. Nanda,  T. S. Nguyen-Beck,  R. Olivares-Amaya,  
 K. J. Oosterbaan,  J. A. Parkhill,  S. K. Paul,  F. Pavosevic,  Zheng Pei,  
 T. M. Perrine,  F. Plasser,  P. Pokhilko,  S. Prager,  A. Prociuk,  
 E. Ramos,  B. Rana,  D. R. Rehn,  F. Rob,  M. Scheurer,  M. Schneider,  
 N. Sergueev,  S. M. Sharada,  S. Sharma,  D. W. Small,  T. Stauch,  
 C. J. Stein,  T. Stein,  Yu-Chuan Su,  S. P. Veccham,  Zhen Tao,  
 A. J. W. Thom,  A. Tkatchenko,  T. Tsuchimochi,  N. M. Tubman,  L. Vogt,  
 M. L. Vidal,  O. Vydrov,  M. A. Watson,  J. Wenzel,  M. de Wergifosse,  
 T. A. Wesolowski,  A. White,  J. Witte,  A. Yamada,  Jun Yang,  K. Yao,  
 S. Yeganeh,  S. R. Yost,  Zhi-Qiang You,  A. Zech,  Igor Ying Zhang,  
 Xing Zhang,  Yan Zhao,  Ying Zhu,  B. R. Brooks,  G. K. L. Chan,  
 C. J. Cramer,  M. S. Gordon,  W. J. Hehre,  A. Klamt,  M. W. Schmidt,  
 C. D. Sherrill,  D. G. Truhlar,  A. Aspuru-Guzik,  R. Baer,  A. T. Bell,  
 N. A. Besley,  Jeng-Da Chai,  A. E. DePrince, III,  R. A. DiStasio Jr.,  
 A. Dreuw,  B. D. Dunietz,  T. R. Furlani,  Chao-Ping Hsu,  Yousung Jung,  
 Jing Kong,  D. S. Lambrecht,  WanZhen Liang,  C. Ochsenfeld,  
 V. A. Rassolov,  L. V. Slipchenko,  J. E. Subotnik,  T. Van Voorhis,  
 J. M. Herbert,  A. I. Krylov,  P. M. W. Gill,  M. Head-Gordon

 Contributors to earlier versions of Q-Chem not listed above: 
 R. D. Adamson,  B. Austin,  J. Baker,  G. J. O. Beran,  K. Brandhorst,  
 S. T. Brown,  E. F. C. Byrd,  A. K. Chakraborty,  C.-L. Cheng,  
 Siu Hung Chien,  D. M. Chipman,  D. L. Crittenden,  H. Dachsel,  
 R. J. Doerksen,  A. D. Dutoi,  L. Fusti-Molnar,  W. A. Goddard III,  
 A. Golubeva-Zadorozhnaya,  S. R. Gwaltney,  G. Hawkins,  A. Heyden,  
 S. Hirata,  G. Kedziora,  F. J. Keil,  C. Kelley,  Jihan Kim,  R. A. King,  
 R. Z. Khaliullin,  P. P. Korambath,  W. Kurlancheek,  A. M. Lee,  M. S. Lee,  
 S. V. Levchenko,  Ching Yeh Lin,  D. Liotard,  R. C. Lochan,  I. Lotan,  
 P. E. Maslen,  N. Nair,  D. P. O'Neill,  D. Neuhauser,  E. Neuscamman,  
 C. M. Oana,  R. Olson,  B. Peters,  R. Peverati,  P. A. Pieniazek,  
 Y. M. Rhee,  J. Ritchie,  M. A. Rohrdanz,  E. Rosta,  N. J. Russ,  
 H. F. Schaefer III,  N. E. Schultz,  N. Shenvi,  A. C. Simmonett,  A. Sodt,  
 D. Stuck,  K. S. Thanthiriwatte,  V. Vanovschi,  Tao Wang,  A. Warshel,  
 C. F. Williams,  Q. Wu,  X. Xu,  W. Zhang

 Please cite Q-Chem as follows:
 Y. Shao et al., Mol. Phys. 113, 184-215 (2015)
 DOI: 10.1080/00268976.2014.952696

 Q-Chem 5.3.0 for Intel X86 EM64T Linux

 Parts of Q-Chem use Armadillo 9.800.1 (Horizon Scraper).
 http://arma.sourceforge.net/

 Q-Chem begins on Sun Jul 12 20:29:51 2020  

Host: centos77-c2
0

     Scratch files written to /tmp/28905.centos77-h1/qchem123705//
Processing $rem in /opt/qchem-5.3.0-intel2020u1//config/preferences:
Processing $rem in /home/shihchengli/.qchemrc:

Checking the input file for inconsistencies... 	...done.

--------------------------------------------------------------
User input:
--------------------------------------------------------------
$rem
   JOBTYPE  sp
   EXCHANGE   omegaB97X-D
   BASIS   6-311+G(2df,2pd)
   UNRESTRICTED   True
   max_scf_cycles   250
   geom_opt_max_cycles   1500
   basis2 6-31G*
   scf_algorithm rca_diis
   SYM_IGNORE  TRUE
   print_input   true
   geom_opt_dmax   80
   pop_mulliken false
   XC_GRID 000075000302
$end

$molecule
0 2
N       -0.0003717101     0.1396521692     0.0000000000
O       0.0001695862     -1.4278363873     -0.0000000000
O       -0.9753770105     0.6421310431     -0.0000000000
O       0.9755794163     0.6421250970     -0.0000000000
$end
--------------------------------------------------------------
 ----------------------------------------------------------------
             Standard Nuclear Orientation (Angstroms)
    I     Atom           X                Y                Z
 ----------------------------------------------------------------
    1      N      -0.0003717101     0.1396521692     0.0000000000
    2      O       0.0001695862    -1.4278363873     0.0000000000
    3      O      -0.9753770105     0.6421310431     0.0000000000
    4      O       0.9755794163     0.6421250970     0.0000000000
 ----------------------------------------------------------------
 Nuclear Repulsion Energy =         119.87810937 hartrees
 There are       16 alpha and       15 beta electrons
 Requested basis set is 6-311+G(2df,2pd)
 There are 32 shells and 136 basis functions

 Total QAlloc Memory Limit   2000 MB
 Mega-Array Size       188 MB
 MEM_STATIC part       192 MB

                       Distance Matrix (Angstroms)
             N (  1)   O (  2)   O (  3)
   O (  2)  1.567489
   O (  3)  1.096868  2.288330
   O (  4)  1.097707  2.288267  1.950956
 
 A cutoff of  1.0D-09 yielded    509 shell pairs
 There are      9417 function pairs (     12463 Cartesian)
 Smallest overlap matrix eigenvalue = 8.24E-04

 Scale SEOQF with 1.000000e-01/1.000000e-01/1.000000e-01

 Standard Electronic Orientation quadrupole field applied
 Nucleus-field energy     =     0.0000000022 hartrees
 Requested basis set is 6-31G(d)
 There are 16 shells and 56 basis functions
 A cutoff of  1.0D-09 yielded    132 shell pairs
 There are      1680 function pairs (      1934 Cartesian)
 Smallest overlap matrix eigenvalue = 4.42E-03
 Guess from superposition of atomic densities
 Warning:  Energy on first SCF cycle will be non-variational
 SAD guess density has 31.000000 electrons
 Long-range K will be added via erf
 Coulomb attenuation parameter = 0.2 bohr**(-1)
 An unrestricted hybrid HF-DFT SCF calculation will be
 performed using Relaxed Constraint Minimization + Pulay DIIS
 Exchange:     0.2220 Hartree-Fock + 1.0000 wB97X-D + LR-HF
 Correlation:  1.0000 wB97X-D
 Using Euler-Maclaurin-Lebedev (75,302) quadrature formula
 Dispersion:   Grimme D
 SCF converges when DIIS error is below 1.0E-04
 using 6 threads for integral computing
 -------------------------------------------------------
 OpenMP Integral computing Module                
 Release: version 1.0, May 2013, Q-Chem Inc. Pittsburgh 
 -------------------------------------------------------
 using 6 threads for integral computing
 -------------------------------------------------------
 OpenMP Integral computing Module                
 Release: version 1.0, May 2013, Q-Chem Inc. Pittsburgh 
 -------------------------------------------------------
 ---------------------------------------
  Cycle       Energy         DIIS Error
 ---------------------------------------
    1    -281.1729439614      1.28E-01
    2    -279.8335927940      2.51E-02
    3    -279.9131375254      6.37E-03
    4    -280.0269726704      6.93E-03
    5    -280.0339586756      1.23E-03
    6    -280.0453776369      8.79E-04 Done RCA. Switching to DIIS
    7    -280.0468257733      1.37E-03
    8    -280.0486616451      1.89E-04
    9    -280.0487921276      7.64E-05 Convergence criterion met
 ---------------------------------------
 <S^2> = 0.7557
 SCF time:  CPU 10.77 s  wall 1.93 s
 SCF   energy in the small basis set = -280.04879213
 Total energy in the small basis set = -280.04879213
 ----------------------------------------------------
  Cycle       Energy    
 ----------------------------------------------------
    1     -28.4679992716     -2.85E+01
 Long-range K will be added via erf
 Coulomb attenuation parameter = 0.2 bohr**(-1)
 An unrestricted hybrid HF-DFT SCF calculation will be
 performed using Relaxed Constraint Minimization + Pulay DIIS
 Exchange:     0.2220 Hartree-Fock + 1.0000 wB97X-D + LR-HF
 Correlation:  1.0000 wB97X-D
 Using Euler-Maclaurin-Lebedev (75,302) quadrature formula
 Dispersion:   Grimme D
 SCF converges when DIIS error is below 1.0E-05
 Basis2 calculation detected. Using small basis as guess for larger.
 SCFMinFind is unable to tell whether the solution found is close.
 Resetting ReadMinima to 0 and attempting to follow guess.
 SCFMinFind following SCF Guess.
 using 6 threads for integral computing
 -------------------------------------------------------
 OpenMP Integral computing Module                
 Release: version 1.0, May 2013, Q-Chem Inc. Pittsburgh 
 -------------------------------------------------------
 using 6 threads for integral computing
 -------------------------------------------------------
 OpenMP Integral computing Module                
 Release: version 1.0, May 2013, Q-Chem Inc. Pittsburgh 
 -------------------------------------------------------
 ---------------------------------------
  Cycle       Energy         DIIS Error
 ---------------------------------------
    1    -280.0995294001      1.03E-02
    2    -280.0906945266      7.01E-03
    3    -280.1155386837      2.37E-03
    4    -280.1548176705      1.70E-03
    5    -280.1593043669      7.00E-04 Done RCA. Switching to DIIS
    6    -280.1643316852      9.12E-04
    7    -280.1663824948      1.39E-04
    8    -280.1664779230      2.36E-05
    9    -280.1665062711      1.56E-05
   10    -280.1665117106      5.39E-06 Convergence criterion met
 ---------------------------------------
 <S^2> = 0.7575
 SCF time:  CPU 44.55 s  wall 8.63 s
 SCF   energy in the final basis set = -280.16651171
 Total energy in the final basis set = -280.16651171
 
 --------------------------------------------------------------
 
                    Orbital Energies (a.u.)
 --------------------------------------------------------------
 
 Alpha MOs
 -- Occupied --
-19.3895 -19.3487 -19.3483 -14.7645  -1.5189  -1.3160  -1.1559  -0.7849
 -0.7583  -0.7264  -0.6880  -0.5567  -0.4840  -0.4813  -0.4811  -0.4508
 -- Virtual --
  0.0156   0.0168   0.1033   0.1368   0.1390   0.1555   0.2430   0.2462
  0.2514   0.2600   0.2601   0.3214   0.3383   0.3416   0.3504   0.3512
  0.4289   0.4366   0.5184   0.6054   0.7352   0.8157   0.8707   0.9177
  0.9418   1.0095   1.0359   1.0690   1.0845   1.0860   1.1054   1.1157
  1.1202   1.1699   1.1812   1.2658   1.4658   1.4690   1.5056   1.5218
  1.5758   1.5946   1.5995   1.6004   1.7634   1.7861   1.9329   1.9415
  2.0132   2.2355   2.3039   2.3476   2.5260   2.6071   2.6679   2.7861
  3.5619   3.6354   3.6368   3.6398   3.8516   3.9011   4.1155   4.1558
  4.2541   4.3471   4.4003   4.5996   4.6120   4.7195   4.7321   4.9732
  4.9805   4.9924   5.0024   5.0107   5.0258   5.0297   5.0363   5.0447
  5.0529   5.1347   5.1674   5.2144   5.2159   5.3654   5.3895   5.4000
  5.4797   5.5211   5.7663   5.8727   5.9757   6.0117   6.2993   6.6642
  6.6816   6.7327   6.7627   6.7759   6.8194   6.8650   6.9029   7.0206
  7.0271   7.1864   7.2278   7.2458   7.2690   7.3594   7.6321   7.6389
  7.7155   7.9023   8.0282   8.4688  36.4669  49.9127  50.3279  50.4964
 
 Beta MOs
 -- Occupied --
-19.3664 -19.3480 -19.3475 -14.7653  -1.5181  -1.3148  -1.0876  -0.7684
 -0.7587  -0.7201  -0.6854  -0.4806  -0.4632  -0.4606  -0.4514
 -- Virtual --
 -0.1250   0.0154   0.0341   0.1036   0.1385   0.1386   0.1554   0.2428
  0.2529   0.2530   0.2597   0.2603   0.3246   0.3375   0.3406   0.3497
  0.3506   0.4306   0.4419   0.5188   0.6121   0.7353   0.8228   0.8722
  0.9178   0.9427   1.0120   1.0361   1.0891   1.0927   1.1014   1.1097
  1.1186   1.1228   1.1847   1.1944   1.2722   1.4698   1.5116   1.5258
  1.5478   1.5816   1.6010   1.6050   1.6124   1.7908   1.7954   1.9370
  1.9519   2.0156   2.2369   2.3210   2.3498   2.5351   2.6080   2.6751
  2.7896   3.5619   3.6353   3.6358   3.6388   3.8575   3.9013   4.1226
  4.1552   4.2533   4.3466   4.4033   4.5968   4.6163   4.7280   4.7328
  5.0027   5.0105   5.0292   5.0330   5.0412   5.0419   5.0565   5.0844
  5.0889   5.1064   5.1626   5.1706   5.2264   5.2309   5.3950   5.4015
  5.4164   5.4815   5.5296   5.7790   5.8797   5.9790   6.0217   6.3208
  6.6774   6.7622   6.7682   6.7856   6.8205   6.8263   6.8755   6.9449
  7.0284   7.0438   7.1872   7.2455   7.2708   7.2740   7.3857   7.6341
  7.6401   7.7344   7.9032   8.0328   8.4688  36.4659  49.9412  50.3286
 50.4970
 --------------------------------------------------------------
 
 -----------------------------------------------------------------
                    Cartesian Multipole Moments
 -----------------------------------------------------------------
    Charge (ESU x 10^10)
                -0.0000
    Dipole Moment (Debye)
         X      -0.0052      Y       0.1143      Z      -0.0000
       Tot       0.1144
    Quadrupole Moments (Debye-Ang)
        XX     -22.5211     XY      -0.0011     YY     -22.4987
        XZ      -0.0000     YZ       0.0000     ZZ     -20.0065
    Octopole Moments (Debye-Ang^2)
       XXX      -0.0107    XXY      -1.4233    XYY      -0.0052
       YYY       2.2508    XXZ       0.0000    XYZ      -0.0000
       YYZ       0.0000    XZZ      -0.0045    YZZ       1.5295
       ZZZ      -0.0000
    Hexadecapole Moments (Debye-Ang^3)
      XXXX     -77.9729   XXXY       0.0006   XXYY     -29.9117
      XYYY      -0.0004   YYYY    -109.3076   XXXZ      -0.0000
      XXYZ       0.0000   XYYZ       0.0000   YYYZ       0.0000
      XXZZ     -15.1069   XYZZ      -0.0009   YYZZ     -21.5990
      XZZZ      -0.0000   YZZZ      -0.0000   ZZZZ     -15.1745
 -----------------------------------------------------------------
Archival summary:
1\1\centos77-c2\SP\ProcedureUnspecified\BasisUnspecified\31(2)\shihchen\SunJul1220:30:042020SunJul1220:30:042020\0\\#,ProcedureUnspecified,BasisUnspecified,\\0,2\N\O,1,1.09687\O,1,1.09771,2,125.493\O,1,1.56749,2,117.285,3,-180,0\\\@

 Total job time:  12.53s(wall), 59.25s(cpu) 
 Sun Jul 12 20:30:04 2020

        *************************************************************
        *                                                           *
        *  Thank you very much for using Q-Chem.  Have a nice day.  *
        *                                                           *
        *************************************************************


