                  Welcome to Q-Chem
     A Quantum Leap Into The Future Of Chemistry


 Q-Chem 5.3 (devel), Q-Chem, Inc., Pleasanton, CA (2020)

 Yihan Shao,  Zhengting Gan,  E. Epifanovsky,  A. T. B. Gilbert,  M. Wormit,  
 J. Kussmann,  A. W. Lange,  A. Behn,  Jia Deng,  Xintian Feng,  D. Ghosh,  
 M. Goldey,  P. R. Horn,  L. D. Jacobson,  I. Kaliman,  T. Kus,  A. Landau,  
 Jie Liu,  E. I. Proynov,  R. M. Richard,  R. P. Steele,  E. J. Sundstrom,  
 H. L. Woodcock III,  P. M. Zimmerman,  D. Zuev,  B. Alam,  B. Albrecht,  
 E. Alguire,  S. A. Baeppler,  D. Barton,  Z. Benda,  Y. A. Bernard,  
 E. J. Berquist,  K. B. Bravaya,  H. Burton,  K. Carter-Fenk,  D. Casanova,  
 Chun-Min Chang,  Yunqing Chen,  A. Chien,  K. D. Closser,  M. P. Coons,  
 S. Coriani,  S. Dasgupta,  A. L. Dempwolff,  M. Diedenhofen,  Hainam Do,  
 R. G. Edgar,  Po-Tung Fang,  S. Faraji,  S. Fatehi,  Qingguo Feng,  
 J. Fosso-Tande,  J. Gayvert,  Qinghui Ge,  A. Ghysels,  G. Gidofalvi,  
 J. Gomes,  J. Gonthier,  A. Gunina,  D. Hait,  M. W. D. Hanson-Heine,  
 P. H. P. Harbach,  A. W. Hauser,  M. F. Herbst,  J. E. Herr,  
 E. G. Hohenstein,  Z. C. Holden,  Kerwin Hui,  B. C. Huynh,  T.-C. Jagau,  
 Hyunjun Ji,  B. Kaduk,  K. Khistyaev,  Jaehoon Kim,  P. Klunzinger,  K. Koh,  
 D. Kosenkov,  L. Koulias,  T. Kowalczyk,  C. M. Krauter,  A. Kunitsa,  
 Ka Un Lao,  A. Laurent,  K. V. Lawler,  Joonho Lee,  D. Lefrancois,  
 S. Lehtola,  D. S. Levine,  Yi-Pei Li,  You-Sheng Lin,  Fenglai Liu,  
 Kuan-Yu Liu,  E. Livshits,  M. Loipersberger,  A. Luenser,  P. Manohar,  
 E. Mansoor,  S. F. Manzer,  Shan-Ping Mao,  Yuezhi Mao,  N. Mardirossian,  
 A. V. Marenich,  T. Markovich,  L. A. Martinez-Martinez,  S. A. Maurer,  
 N. J. Mayhall,  S. C. McKenzie,  J.-M. Mewes,  P. Morgante,  A. F. Morrison,  
 J. W. Mullinax,  K. Nanda,  T. S. Nguyen-Beck,  R. Olivares-Amaya,  
 K. J. Oosterbaan,  J. A. Parkhill,  S. K. Paul,  F. Pavosevic,  Zheng Pei,  
 T. M. Perrine,  F. Plasser,  P. Pokhilko,  S. Prager,  A. Prociuk,  
 E. Ramos,  B. Rana,  D. R. Rehn,  F. Rob,  M. Scheurer,  M. Schneider,  
 N. Sergueev,  S. M. Sharada,  S. Sharma,  D. W. Small,  T. Stauch,  
 C. J. Stein,  T. Stein,  Yu-Chuan Su,  S. P. Veccham,  Zhen Tao,  
 A. J. W. Thom,  A. Tkatchenko,  T. Tsuchimochi,  N. M. Tubman,  L. Vogt,  
 M. L. Vidal,  O. Vydrov,  M. A. Watson,  J. Wenzel,  M. de Wergifosse,  
 T. A. Wesolowski,  A. White,  J. Witte,  A. Yamada,  Jun Yang,  K. Yao,  
 S. Yeganeh,  S. R. Yost,  Zhi-Qiang You,  A. Zech,  Igor Ying Zhang,  
 Xing Zhang,  Yan Zhao,  Ying Zhu,  B. R. Brooks,  G. K. L. Chan,  
 C. J. Cramer,  M. S. Gordon,  W. J. Hehre,  A. Klamt,  M. W. Schmidt,  
 C. D. Sherrill,  D. G. Truhlar,  A. Aspuru-Guzik,  R. Baer,  A. T. Bell,  
 N. A. Besley,  Jeng-Da Chai,  A. E. DePrince, III,  R. A. DiStasio Jr.,  
 A. Dreuw,  B. D. Dunietz,  T. R. Furlani,  Chao-Ping Hsu,  Yousung Jung,  
 Jing Kong,  D. S. Lambrecht,  WanZhen Liang,  C. Ochsenfeld,  
 V. A. Rassolov,  L. V. Slipchenko,  J. E. Subotnik,  T. Van Voorhis,  
 J. M. Herbert,  A. I. Krylov,  P. M. W. Gill,  M. Head-Gordon

 Contributors to earlier versions of Q-Chem not listed above: 
 R. D. Adamson,  B. Austin,  J. Baker,  G. J. O. Beran,  K. Brandhorst,  
 S. T. Brown,  E. F. C. Byrd,  A. K. Chakraborty,  C.-L. Cheng,  
 Siu Hung Chien,  D. M. Chipman,  D. L. Crittenden,  H. Dachsel,  
 R. J. Doerksen,  A. D. Dutoi,  L. Fusti-Molnar,  W. A. Goddard III,  
 A. Golubeva-Zadorozhnaya,  S. R. Gwaltney,  G. Hawkins,  A. Heyden,  
 S. Hirata,  G. Kedziora,  F. J. Keil,  C. Kelley,  Jihan Kim,  R. A. King,  
 R. Z. Khaliullin,  P. P. Korambath,  W. Kurlancheek,  A. M. Lee,  M. S. Lee,  
 S. V. Levchenko,  Ching Yeh Lin,  D. Liotard,  R. C. Lochan,  I. Lotan,  
 P. E. Maslen,  N. Nair,  D. P. O'Neill,  D. Neuhauser,  E. Neuscamman,  
 C. M. Oana,  R. Olson,  B. Peters,  R. Peverati,  P. A. Pieniazek,  
 Y. M. Rhee,  J. Ritchie,  M. A. Rohrdanz,  E. Rosta,  N. J. Russ,  
 H. F. Schaefer III,  N. E. Schultz,  N. Shenvi,  A. C. Simmonett,  A. Sodt,  
 D. Stuck,  K. S. Thanthiriwatte,  V. Vanovschi,  Tao Wang,  A. Warshel,  
 C. F. Williams,  Q. Wu,  X. Xu,  W. Zhang

 Please cite Q-Chem as follows:
 Y. Shao et al., Mol. Phys. 113, 184-215 (2015)
 DOI: 10.1080/00268976.2014.952696

 Q-Chem 5.3.0 for Intel X86 EM64T Linux

 Parts of Q-Chem use Armadillo 9.800.1 (Horizon Scraper).
 http://arma.sourceforge.net/

 Q-Chem begins on Sun Jul 12 20:23:45 2020  

Host: centos77-c2
0

     Scratch files written to /tmp/28905.centos77-h1/qchem122340//
Processing $rem in /opt/qchem-5.3.0-intel2020u1//config/preferences:
Processing $rem in /home/shihchengli/.qchemrc:

Checking the input file for inconsistencies... 	...done.

--------------------------------------------------------------
User input:
--------------------------------------------------------------
$rem
   JOBTYPE  sp
   EXCHANGE   omegaB97X-D
   BASIS   6-311+G(2df,2pd)
   UNRESTRICTED   True
   max_scf_cycles   250
   geom_opt_max_cycles   1500
   basis2 6-31G*
   scf_algorithm rca_diis
   SYM_IGNORE  TRUE
   print_input   true
   geom_opt_dmax   80
   pop_mulliken false
   XC_GRID 000075000302
$end

$molecule
0 2
N       0.0765976060     -0.0500456769     -0.0000000000
O       0.0383275394     -1.2431583459     0.0000000000
O       -1.0850067751     0.7060714567     0.0000000000
O       0.9700819115     0.5832044881     0.0000000000
$end
--------------------------------------------------------------
 ----------------------------------------------------------------
             Standard Nuclear Orientation (Angstroms)
    I     Atom           X                Y                Z
 ----------------------------------------------------------------
    1      N       0.0765976060    -0.0500456769     0.0000000000
    2      O       0.0383275394    -1.2431583459     0.0000000000
    3      O      -1.0850067751     0.7060714567     0.0000000000
    4      O       0.9700819115     0.5832044881     0.0000000000
 ----------------------------------------------------------------
 Nuclear Repulsion Energy =         121.28726930 hartrees
 There are       16 alpha and       15 beta electrons
 Requested basis set is 6-311+G(2df,2pd)
 There are 32 shells and 136 basis functions

 Total QAlloc Memory Limit   2000 MB
 Mega-Array Size       188 MB
 MEM_STATIC part       192 MB

                       Distance Matrix (Angstroms)
             N (  1)   O (  2)   O (  3)
   O (  2)  1.193726
   O (  3)  1.386015  2.249750
   O (  4)  1.095135  2.050309  2.058758
 
 A cutoff of  1.0D-09 yielded    510 shell pairs
 There are      9463 function pairs (     12515 Cartesian)
 Smallest overlap matrix eigenvalue = 8.60E-04

 Scale SEOQF with 1.000000e-01/1.000000e-01/1.000000e-01

 Standard Electronic Orientation quadrupole field applied
 Nucleus-field energy     =     0.0000000020 hartrees
 Requested basis set is 6-31G(d)
 There are 16 shells and 56 basis functions
 A cutoff of  1.0D-09 yielded    133 shell pairs
 There are      1681 function pairs (      1935 Cartesian)
 Smallest overlap matrix eigenvalue = 4.74E-03
 Guess from superposition of atomic densities
 Warning:  Energy on first SCF cycle will be non-variational
 SAD guess density has 31.000000 electrons
 Long-range K will be added via erf
 Coulomb attenuation parameter = 0.2 bohr**(-1)
 An unrestricted hybrid HF-DFT SCF calculation will be
 performed using Relaxed Constraint Minimization + Pulay DIIS
 Exchange:     0.2220 Hartree-Fock + 1.0000 wB97X-D + LR-HF
 Correlation:  1.0000 wB97X-D
 Using Euler-Maclaurin-Lebedev (75,302) quadrature formula
 Dispersion:   Grimme D
 SCF converges when DIIS error is below 1.0E-04
 using 6 threads for integral computing
 -------------------------------------------------------
 OpenMP Integral computing Module                
 Release: version 1.0, May 2013, Q-Chem Inc. Pittsburgh 
 -------------------------------------------------------
 using 6 threads for integral computing
 -------------------------------------------------------
 OpenMP Integral computing Module                
 Release: version 1.0, May 2013, Q-Chem Inc. Pittsburgh 
 -------------------------------------------------------
 ---------------------------------------
  Cycle       Energy         DIIS Error
 ---------------------------------------
    1    -281.1451364493      1.23E-01
    2    -279.8839142893      2.55E-02
    3    -279.9662071427      4.71E-03
    4    -280.0754798368      4.74E-03
    5    -280.0786425447      9.47E-04 Done RCA. Switching to DIIS
    6    -280.0838571155      7.40E-04
    7    -280.0847612525      7.04E-04
    8    -280.0853432052      3.49E-04
    9    -280.0858998837      6.67E-05 Convergence criterion met
 ---------------------------------------
 <S^2> = 0.7541
 SCF time:  CPU 15.26 s  wall 3.18 s
 SCF   energy in the small basis set = -280.08589988
 Total energy in the small basis set = -280.08589988
 ----------------------------------------------------
  Cycle       Energy    
 ----------------------------------------------------
    1     -28.4330086924     -2.84E+01
 Long-range K will be added via erf
 Coulomb attenuation parameter = 0.2 bohr**(-1)
 An unrestricted hybrid HF-DFT SCF calculation will be
 performed using Relaxed Constraint Minimization + Pulay DIIS
 Exchange:     0.2220 Hartree-Fock + 1.0000 wB97X-D + LR-HF
 Correlation:  1.0000 wB97X-D
 Using Euler-Maclaurin-Lebedev (75,302) quadrature formula
 Dispersion:   Grimme D
 SCF converges when DIIS error is below 1.0E-05
 Basis2 calculation detected. Using small basis as guess for larger.
 SCFMinFind is unable to tell whether the solution found is close.
 Resetting ReadMinima to 0 and attempting to follow guess.
 SCFMinFind following SCF Guess.
 using 6 threads for integral computing
 -------------------------------------------------------
 OpenMP Integral computing Module                
 Release: version 1.0, May 2013, Q-Chem Inc. Pittsburgh 
 -------------------------------------------------------
 using 6 threads for integral computing
 -------------------------------------------------------
 OpenMP Integral computing Module                
 Release: version 1.0, May 2013, Q-Chem Inc. Pittsburgh 
 -------------------------------------------------------
 ---------------------------------------
  Cycle       Energy         DIIS Error
 ---------------------------------------
    1    -280.1246601117      1.05E-02
    2    -280.0565156837      9.34E-03
    3    -280.1034071596      3.32E-03
    4    -280.1538465970      4.16E-03
    5    -280.1693142356      6.50E-04 Done RCA. Switching to DIIS
    6    -280.1957866543      1.16E-03
    7    -280.1978516416      4.35E-04
    8    -280.1985369436      3.28E-04
    9    -280.1995165522      9.85E-05
   10    -280.1996138089      2.60E-05
   11    -280.1996209060      8.30E-06 Convergence criterion met
 ---------------------------------------
 <S^2> = 0.7552
 SCF time:  CPU 45.84 s  wall 8.77 s
 SCF   energy in the final basis set = -280.19962091
 Total energy in the final basis set = -280.19962091
 
 --------------------------------------------------------------
 
                    Orbital Energies (a.u.)
 --------------------------------------------------------------
 
 Alpha MOs
 -- Occupied --
-19.4059 -19.3677 -19.3405 -14.7759  -1.5065  -1.2795  -1.2129  -0.7886
 -0.7513  -0.7258  -0.6940  -0.5678  -0.4981  -0.4966  -0.4732  -0.4510
 -- Virtual --
 -0.0043   0.0790   0.1351   0.1386   0.1425   0.1565   0.2398   0.2416
  0.2548   0.2579   0.2609   0.3245   0.3333   0.3424   0.3501   0.3506
  0.4227   0.4345   0.4432   0.5696   0.7522   0.8138   0.8396   0.9213
  0.9476   0.9934   1.0434   1.0451   1.0741   1.0761   1.0794   1.1087
  1.1215   1.1554   1.1833   1.3241   1.3891   1.4786   1.5031   1.5642
  1.5722   1.5732   1.5914   1.6348   1.7680   1.8892   1.9584   1.9645
  1.9990   2.2482   2.3165   2.3551   2.5026   2.5875   2.6804   2.8008
  3.6036   3.6387   3.6541   3.6658   3.7923   3.9951   4.0610   4.0934
  4.3597   4.3602   4.4081   4.4854   4.5978   4.6715   4.7108   4.9664
  4.9716   4.9842   4.9934   5.0098   5.0293   5.0385   5.0521   5.0665
  5.0969   5.1320   5.1429   5.2133   5.2167   5.3404   5.4109   5.4277
  5.5748   5.6471   5.7625   5.8578   6.0403   6.0978   6.3996   6.6581
  6.7180   6.7217   6.7716   6.7881   6.8042   6.8114   6.8407   7.0305
  7.1091   7.1253   7.1876   7.1909   7.2597   7.3129   7.5710   7.6140
  7.7892   7.8935   7.9742   8.3678  36.3049  49.9404  50.2364  50.4126
 
 Beta MOs
 -- Occupied --
-19.3858 -19.3638 -19.3383 -14.7767  -1.5002  -1.2734  -1.1631  -0.7675
 -0.7498  -0.7088  -0.6821  -0.4775  -0.4755  -0.4677  -0.4549
 -- Virtual --
 -0.1514  -0.0024   0.0826   0.1368   0.1383   0.1524   0.1564   0.2404
  0.2434   0.2578   0.2582   0.2605   0.3267   0.3326   0.3412   0.3498
  0.3502   0.4278   0.4377   0.4472   0.5774   0.7519   0.8175   0.8459
  0.9263   0.9498   0.9965   1.0446   1.0671   1.0789   1.0811   1.0850
  1.1153   1.1242   1.1786   1.1860   1.3298   1.4049   1.5040   1.5256
  1.5685   1.5808   1.5905   1.6037   1.6438   1.7842   1.8952   1.9620
  1.9737   2.0210   2.2510   2.3342   2.3587   2.5058   2.5910   2.6935
  2.8073   3.6037   3.6398   3.6541   3.6661   3.7940   4.0019   4.0703
  4.0934   4.3597   4.3638   4.4119   4.4906   4.6079   4.6704   4.7161
  4.9910   5.0072   5.0184   5.0371   5.0452   5.0525   5.0682   5.0756
  5.0843   5.1243   5.1421   5.1628   5.2252   5.2286   5.3651   5.4307
  5.4363   5.5845   5.6553   5.7770   5.8649   6.0486   6.1213   6.4227
  6.6821   6.7573   6.7845   6.7900   6.8088   6.8206   6.8313   6.8603
  7.0667   7.1255   7.1313   7.1896   7.2146   7.2639   7.3561   7.5794
  7.6211   7.7960   7.9070   7.9824   8.3724  36.3041  49.9630  50.2386
 50.4160
 --------------------------------------------------------------
 
 -----------------------------------------------------------------
                    Cartesian Multipole Moments
 -----------------------------------------------------------------
    Charge (ESU x 10^10)
                -0.0000
    Dipole Moment (Debye)
         X      -0.0342      Y       0.5540      Z       0.0000
       Tot       0.5550
    Quadrupole Moments (Debye-Ang)
        XX     -22.0214     XY      -0.0134     YY     -23.1504
        XZ       0.0000     YZ      -0.0000     ZZ     -19.9889
    Octopole Moments (Debye-Ang^2)
       XXX      -0.2508    XXY      -0.5944    XYY       0.1394
       YYY       2.6653    XXZ       0.0000    XYZ      -0.0000
       YYZ      -0.0000    XZZ       0.8709    YZZ      -0.0217
       ZZZ       0.0000
    Hexadecapole Moments (Debye-Ang^3)
      XXXX     -82.3379   XXXY       4.2292   XXYY     -29.9461
      XYYY       3.6261   YYYY     -93.4965   XXXZ       0.0000
      XXYZ       0.0000   XYYZ       0.0000   YYYZ      -0.0000
      XXZZ     -16.7534   XYZZ       1.7512   YYZZ     -18.2157
      XZZZ      -0.0000   YZZZ      -0.0000   ZZZZ     -15.0102
 -----------------------------------------------------------------
Archival summary:
1\1\centos77-c2\SP\ProcedureUnspecified\BasisUnspecified\31(2)\shihchen\SunJul1220:23:582020SunJul1220:23:582020\0\\#,ProcedureUnspecified,BasisUnspecified,\\0,2\N\O,1,1.09513\O,1,1.19373,2,127.164\O,1,1.38602,2,111.612,3,-180,0\\\@

 Total job time:  13.60s(wall), 64.39s(cpu) 
 Sun Jul 12 20:23:58 2020

        *************************************************************
        *                                                           *
        *  Thank you very much for using Q-Chem.  Have a nice day.  *
        *                                                           *
        *************************************************************


