                  Welcome to Q-Chem
     A Quantum Leap Into The Future Of Chemistry


 Q-Chem 5.3 (devel), Q-Chem, Inc., Pleasanton, CA (2020)

 Yihan Shao,  Zhengting Gan,  E. Epifanovsky,  A. T. B. Gilbert,  M. Wormit,  
 J. Kussmann,  A. W. Lange,  A. Behn,  Jia Deng,  Xintian Feng,  D. Ghosh,  
 M. Goldey,  P. R. Horn,  L. D. Jacobson,  I. Kaliman,  T. Kus,  A. Landau,  
 Jie Liu,  E. I. Proynov,  R. M. Richard,  R. P. Steele,  E. J. Sundstrom,  
 H. L. Woodcock III,  P. M. Zimmerman,  D. Zuev,  B. Alam,  B. Albrecht,  
 E. Alguire,  S. A. Baeppler,  D. Barton,  Z. Benda,  Y. A. Bernard,  
 E. J. Berquist,  K. B. Bravaya,  H. Burton,  K. Carter-Fenk,  D. Casanova,  
 Chun-Min Chang,  Yunqing Chen,  A. Chien,  K. D. Closser,  M. P. Coons,  
 S. Coriani,  S. Dasgupta,  A. L. Dempwolff,  M. Diedenhofen,  Hainam Do,  
 R. G. Edgar,  Po-Tung Fang,  S. Faraji,  S. Fatehi,  Qingguo Feng,  
 J. Fosso-Tande,  J. Gayvert,  Qinghui Ge,  A. Ghysels,  G. Gidofalvi,  
 J. Gomes,  J. Gonthier,  A. Gunina,  D. Hait,  M. W. D. Hanson-Heine,  
 P. H. P. Harbach,  A. W. Hauser,  M. F. Herbst,  J. E. Herr,  
 E. G. Hohenstein,  Z. C. Holden,  Kerwin Hui,  B. C. Huynh,  T.-C. Jagau,  
 Hyunjun Ji,  B. Kaduk,  K. Khistyaev,  Jaehoon Kim,  P. Klunzinger,  K. Koh,  
 D. Kosenkov,  L. Koulias,  T. Kowalczyk,  C. M. Krauter,  A. Kunitsa,  
 Ka Un Lao,  A. Laurent,  K. V. Lawler,  Joonho Lee,  D. Lefrancois,  
 S. Lehtola,  D. S. Levine,  Yi-Pei Li,  You-Sheng Lin,  Fenglai Liu,  
 Kuan-Yu Liu,  E. Livshits,  M. Loipersberger,  A. Luenser,  P. Manohar,  
 E. Mansoor,  S. F. Manzer,  Shan-Ping Mao,  Yuezhi Mao,  N. Mardirossian,  
 A. V. Marenich,  T. Markovich,  L. A. Martinez-Martinez,  S. A. Maurer,  
 N. J. Mayhall,  S. C. McKenzie,  J.-M. Mewes,  P. Morgante,  A. F. Morrison,  
 J. W. Mullinax,  K. Nanda,  T. S. Nguyen-Beck,  R. Olivares-Amaya,  
 K. J. Oosterbaan,  J. A. Parkhill,  S. K. Paul,  F. Pavosevic,  Zheng Pei,  
 T. M. Perrine,  F. Plasser,  P. Pokhilko,  S. Prager,  A. Prociuk,  
 E. Ramos,  B. Rana,  D. R. Rehn,  F. Rob,  M. Scheurer,  M. Schneider,  
 N. Sergueev,  S. M. Sharada,  S. Sharma,  D. W. Small,  T. Stauch,  
 C. J. Stein,  T. Stein,  Yu-Chuan Su,  S. P. Veccham,  Zhen Tao,  
 A. J. W. Thom,  A. Tkatchenko,  T. Tsuchimochi,  N. M. Tubman,  L. Vogt,  
 M. L. Vidal,  O. Vydrov,  M. A. Watson,  J. Wenzel,  M. de Wergifosse,  
 T. A. Wesolowski,  A. White,  J. Witte,  A. Yamada,  Jun Yang,  K. Yao,  
 S. Yeganeh,  S. R. Yost,  Zhi-Qiang You,  A. Zech,  Igor Ying Zhang,  
 Xing Zhang,  Yan Zhao,  Ying Zhu,  B. R. Brooks,  G. K. L. Chan,  
 C. J. Cramer,  M. S. Gordon,  W. J. Hehre,  A. Klamt,  M. W. Schmidt,  
 C. D. Sherrill,  D. G. Truhlar,  A. Aspuru-Guzik,  R. Baer,  A. T. Bell,  
 N. A. Besley,  Jeng-Da Chai,  A. E. DePrince, III,  R. A. DiStasio Jr.,  
 A. Dreuw,  B. D. Dunietz,  T. R. Furlani,  Chao-Ping Hsu,  Yousung Jung,  
 Jing Kong,  D. S. Lambrecht,  WanZhen Liang,  C. Ochsenfeld,  
 V. A. Rassolov,  L. V. Slipchenko,  J. E. Subotnik,  T. Van Voorhis,  
 J. M. Herbert,  A. I. Krylov,  P. M. W. Gill,  M. Head-Gordon

 Contributors to earlier versions of Q-Chem not listed above: 
 R. D. Adamson,  B. Austin,  J. Baker,  G. J. O. Beran,  K. Brandhorst,  
 S. T. Brown,  E. F. C. Byrd,  A. K. Chakraborty,  C.-L. Cheng,  
 Siu Hung Chien,  D. M. Chipman,  D. L. Crittenden,  H. Dachsel,  
 R. J. Doerksen,  A. D. Dutoi,  L. Fusti-Molnar,  W. A. Goddard III,  
 A. Golubeva-Zadorozhnaya,  S. R. Gwaltney,  G. Hawkins,  A. Heyden,  
 S. Hirata,  G. Kedziora,  F. J. Keil,  C. Kelley,  Jihan Kim,  R. A. King,  
 R. Z. Khaliullin,  P. P. Korambath,  W. Kurlancheek,  A. M. Lee,  M. S. Lee,  
 S. V. Levchenko,  Ching Yeh Lin,  D. Liotard,  R. C. Lochan,  I. Lotan,  
 P. E. Maslen,  N. Nair,  D. P. O'Neill,  D. Neuhauser,  E. Neuscamman,  
 C. M. Oana,  R. Olson,  B. Peters,  R. Peverati,  P. A. Pieniazek,  
 Y. M. Rhee,  J. Ritchie,  M. A. Rohrdanz,  E. Rosta,  N. J. Russ,  
 H. F. Schaefer III,  N. E. Schultz,  N. Shenvi,  A. C. Simmonett,  A. Sodt,  
 D. Stuck,  K. S. Thanthiriwatte,  V. Vanovschi,  Tao Wang,  A. Warshel,  
 C. F. Williams,  Q. Wu,  X. Xu,  W. Zhang

 Please cite Q-Chem as follows:
 Y. Shao et al., Mol. Phys. 113, 184-215 (2015)
 DOI: 10.1080/00268976.2014.952696

 Q-Chem 5.3.0 for Intel X86 EM64T Linux

 Parts of Q-Chem use Armadillo 9.800.1 (Horizon Scraper).
 http://arma.sourceforge.net/

 Q-Chem begins on Sun Jul 12 20:15:34 2020  

Host: centos77-c2
0

     Scratch files written to /tmp/28905.centos77-h1/qchem120416//
Processing $rem in /opt/qchem-5.3.0-intel2020u1//config/preferences:
Processing $rem in /home/shihchengli/.qchemrc:

Checking the input file for inconsistencies... 	...done.

--------------------------------------------------------------
User input:
--------------------------------------------------------------
$rem
   JOBTYPE  sp
   EXCHANGE   omegaB97X-D
   BASIS   6-311+G(2df,2pd)
   UNRESTRICTED   True
   max_scf_cycles   250
   geom_opt_max_cycles   1500
   basis2 6-31G*
   scf_algorithm rca_diis
   SYM_IGNORE  TRUE
   print_input   true
   geom_opt_dmax   80
   pop_mulliken false
   XC_GRID 000075000302
$end

$molecule
0 2
N       -0.0039734623     0.0212892848     -0.0000000000
O       0.0034712925     -1.1930104494     0.0000000000
O       -1.0805441132     0.5857462965     0.0000000000
O       1.0810465647     0.5820467901     0.0000000000
$end
--------------------------------------------------------------
 ----------------------------------------------------------------
             Standard Nuclear Orientation (Angstroms)
    I     Atom           X                Y                Z
 ----------------------------------------------------------------
    1      N      -0.0039734623     0.0212892848     0.0000000000
    2      O       0.0034712925    -1.1930104494     0.0000000000
    3      O      -1.0805441132     0.5857462965     0.0000000000
    4      O       1.0810465647     0.5820467901     0.0000000000
 ----------------------------------------------------------------
 Nuclear Repulsion Energy =         121.28114162 hartrees
 There are       16 alpha and       15 beta electrons
 Requested basis set is 6-311+G(2df,2pd)
 There are 32 shells and 136 basis functions

 Total QAlloc Memory Limit   2000 MB
 Mega-Array Size       188 MB
 MEM_STATIC part       192 MB

                       Distance Matrix (Angstroms)
             N (  1)   O (  2)   O (  3)
   O (  2)  1.214323
   O (  3)  1.215572  2.083042
   O (  4)  1.221359  2.076535  2.161594
 
 A cutoff of  1.0D-09 yielded    512 shell pairs
 There are      9503 function pairs (     12563 Cartesian)
 Smallest overlap matrix eigenvalue = 1.13E-03

 Scale SEOQF with 1.000000e-01/1.000000e-01/1.000000e-01

 Standard Electronic Orientation quadrupole field applied
 Nucleus-field energy     =     0.0000000019 hartrees
 Requested basis set is 6-31G(d)
 There are 16 shells and 56 basis functions
 A cutoff of  1.0D-09 yielded    133 shell pairs
 There are      1681 function pairs (      1935 Cartesian)
 Smallest overlap matrix eigenvalue = 5.79E-03
 Guess from superposition of atomic densities
 Warning:  Energy on first SCF cycle will be non-variational
 SAD guess density has 31.000000 electrons
 Long-range K will be added via erf
 Coulomb attenuation parameter = 0.2 bohr**(-1)
 An unrestricted hybrid HF-DFT SCF calculation will be
 performed using Relaxed Constraint Minimization + Pulay DIIS
 Exchange:     0.2220 Hartree-Fock + 1.0000 wB97X-D + LR-HF
 Correlation:  1.0000 wB97X-D
 Using Euler-Maclaurin-Lebedev (75,302) quadrature formula
 Dispersion:   Grimme D
 SCF converges when DIIS error is below 1.0E-04
 using 6 threads for integral computing
 -------------------------------------------------------
 OpenMP Integral computing Module                
 Release: version 1.0, May 2013, Q-Chem Inc. Pittsburgh 
 -------------------------------------------------------
 using 6 threads for integral computing
 -------------------------------------------------------
 OpenMP Integral computing Module                
 Release: version 1.0, May 2013, Q-Chem Inc. Pittsburgh 
 -------------------------------------------------------
 ---------------------------------------
  Cycle       Energy         DIIS Error
 ---------------------------------------
    1    -281.0885392827      1.17E-01
    2    -279.9215825481      2.57E-02
    3    -280.0056136444      3.68E-03
    4    -280.1123879344      3.08E-03
    5    -280.1135314057      5.69E-04 Done RCA. Switching to DIIS
    6    -280.1150323926      6.05E-04
    7    -280.1151563213      1.00E-04
    8    -280.1151729625      8.22E-05 Convergence criterion met
 ---------------------------------------
 <S^2> = 0.7551
 SCF time:  CPU 14.50 s  wall 3.00 s
 SCF   energy in the small basis set = -280.11517296
 Total energy in the small basis set = -280.11517296
 ----------------------------------------------------
  Cycle       Energy    
 ----------------------------------------------------
    1     -28.3793858257     -2.84E+01
 Long-range K will be added via erf
 Coulomb attenuation parameter = 0.2 bohr**(-1)
 An unrestricted hybrid HF-DFT SCF calculation will be
 performed using Relaxed Constraint Minimization + Pulay DIIS
 Exchange:     0.2220 Hartree-Fock + 1.0000 wB97X-D + LR-HF
 Correlation:  1.0000 wB97X-D
 Using Euler-Maclaurin-Lebedev (75,302) quadrature formula
 Dispersion:   Grimme D
 SCF converges when DIIS error is below 1.0E-05
 Basis2 calculation detected. Using small basis as guess for larger.
 SCFMinFind is unable to tell whether the solution found is close.
 Resetting ReadMinima to 0 and attempting to follow guess.
 SCFMinFind following SCF Guess.
 using 6 threads for integral computing
 -------------------------------------------------------
 OpenMP Integral computing Module                
 Release: version 1.0, May 2013, Q-Chem Inc. Pittsburgh 
 -------------------------------------------------------
 using 6 threads for integral computing
 -------------------------------------------------------
 OpenMP Integral computing Module                
 Release: version 1.0, May 2013, Q-Chem Inc. Pittsburgh 
 -------------------------------------------------------
 ---------------------------------------
  Cycle       Energy         DIIS Error
 ---------------------------------------
    1    -280.1876936034      9.86E-03
    2    -280.1966803658      4.47E-03
    3    -280.2073924770      1.29E-03
    4    -280.2219991523      1.28E-03
    5    -280.2230089999      1.90E-04 Done RCA. Switching to DIIS
    6    -280.2242621793      1.78E-04
    7    -280.2243125057      7.27E-05
    8    -280.2243320189      3.72E-05
    9    -280.2243534660      2.67E-05
   10    -280.2243703616      3.01E-06 Convergence criterion met
 ---------------------------------------
 <S^2> = 0.7570
 SCF time:  CPU 46.63 s  wall 8.67 s
 SCF   energy in the final basis set = -280.22437036
 Total energy in the final basis set = -280.22437036
 
 --------------------------------------------------------------
 
                    Orbital Energies (a.u.)
 --------------------------------------------------------------
 
 Alpha MOs
 -- Occupied --
-19.3927 -19.3764 -19.3727 -14.7879  -1.4842  -1.2590  -1.2541  -0.7902
 -0.7435  -0.7158  -0.7127  -0.5453  -0.5222  -0.4913  -0.4833  -0.4643
 -- Virtual --
 -0.0270   0.0870   0.1379   0.1382   0.1572   0.2308   0.2339   0.2363
  0.2592   0.2601   0.2695   0.3279   0.3357   0.3384   0.3490   0.3500
  0.4029   0.4372   0.4404   0.4454   0.7594   0.7971   0.8675   0.8817
  0.9862   0.9949   1.0044   1.0513   1.0625   1.0632   1.0731   1.1026
  1.1071   1.1494   1.1792   1.3426   1.4033   1.4532   1.5207   1.5558
  1.5607   1.5827   1.5912   1.6215   1.7973   1.8810   1.9464   1.9618
  1.9671   2.2715   2.3221   2.4356   2.4742   2.4934   2.7241   2.7648
  3.6221   3.6665   3.6861   3.7129   3.7557   3.9725   4.0435   4.2908
  4.3683   4.3778   4.4453   4.4572   4.5770   4.5880   4.5894   4.9826
  4.9870   4.9896   5.0015   5.0097   5.0240   5.0286   5.0916   5.1019
  5.1039   5.1189   5.1292   5.1474   5.2272   5.2596   5.2926   5.4699
  5.5359   5.7139   5.8402   5.8424   6.1905   6.2580   6.4692   6.5178
  6.5812   6.6228   6.7333   6.7393   6.7671   6.8033   6.8084   6.8227
  7.0064   7.1685   7.1820   7.2176   7.4251   7.4713   7.5246   7.5613
  7.8199   7.8278   8.0146   8.0262  36.2089  50.0928  50.1770  50.1989
 
 Beta MOs
 -- Occupied --
-19.3807 -19.3679 -19.3652 -14.7889  -1.4726  -1.2408  -1.2292  -0.7709
 -0.7409  -0.6933  -0.6881  -0.4763  -0.4730  -0.4708  -0.4613
 -- Virtual --
 -0.1771  -0.0225   0.0866   0.1366   0.1369   0.1567   0.2314   0.2337
  0.2366   0.2585   0.2594   0.2772   0.3287   0.3346   0.3369   0.3485
  0.3489   0.4181   0.4415   0.4440   0.4554   0.7583   0.7988   0.8737
  0.8900   0.9873   0.9973   1.0077   1.0654   1.0675   1.0680   1.0785
  1.1099   1.1127   1.1700   1.1826   1.3496   1.4175   1.4718   1.5329
  1.5710   1.5775   1.5903   1.6022   1.6310   1.8101   1.8954   1.9561
  1.9700   1.9840   2.2759   2.3268   2.4448   2.4800   2.4979   2.7389
  2.7770   3.6197   3.6670   3.6863   3.7149   3.7578   3.9724   4.0556
  4.2970   4.3776   4.3861   4.4507   4.4642   4.5764   4.5882   4.5890
  4.9997   5.0102   5.0225   5.0291   5.0319   5.0514   5.0546   5.1217
  5.1238   5.1271   5.1280   5.1353   5.1735   5.2338   5.2854   5.3152
  5.4812   5.5510   5.7318   5.8493   5.8513   6.2124   6.2861   6.4745
  6.5238   6.5956   6.6288   6.7686   6.7785   6.7959   6.8354   6.8458
  6.8574   7.0380   7.1759   7.1941   7.2277   7.4541   7.4927   7.5417
  7.5791   7.8348   7.8451   8.0190   8.0322  36.2079  50.1021  50.1843
 50.2078
 --------------------------------------------------------------
 
 -----------------------------------------------------------------
                    Cartesian Multipole Moments
 -----------------------------------------------------------------
    Charge (ESU x 10^10)
                -0.0000
    Dipole Moment (Debye)
         X       0.0203      Y      -0.1924      Z      -0.0000
       Tot       0.1935
    Quadrupole Moments (Debye-Ang)
        XX     -22.8791     XY       0.0375     YY     -22.4318
        XZ       0.0000     YZ       0.0000     ZZ     -20.0186
    Octopole Moments (Debye-Ang^2)
       XXX       0.0617    XXY      -1.0105    XYY       0.0231
       YYY       0.2748    XXZ      -0.0000    XYZ       0.0000
       YYZ      -0.0000    XZZ      -0.0225    YZZ      -0.0110
       ZZZ      -0.0000
    Hexadecapole Moments (Debye-Ang^3)
      XXXX     -91.4109   XXXY       0.1476   XXYY     -29.0376
      XYYY       0.2093   YYYY     -83.4096   XXXZ       0.0000
      XXYZ       0.0000   XYYZ       0.0000   YYYZ       0.0000
      XXZZ     -17.8633   XYZZ       0.0359   YYZZ     -16.6259
      XZZZ       0.0000   YZZZ       0.0000   ZZZZ     -14.9580
 -----------------------------------------------------------------
Archival summary:
1\1\centos77-c2\SP\ProcedureUnspecified\BasisUnspecified\31(2)\shihchen\SunJul1220:15:472020SunJul1220:15:472020\0\\#,ProcedureUnspecified,BasisUnspecified,\\0,2\N\O,1,1.21432\O,1,1.21557,2,118.02\O,1,1.22136,2,116.979,3,-180,0\\\@

 Total job time:  12.78s(wall), 63.88s(cpu) 
 Sun Jul 12 20:15:47 2020

        *************************************************************
        *                                                           *
        *  Thank you very much for using Q-Chem.  Have a nice day.  *
        *                                                           *
        *************************************************************


