                  Welcome to Q-Chem
     A Quantum Leap Into The Future Of Chemistry


 Q-Chem 5.3 (devel), Q-Chem, Inc., Pleasanton, CA (2020)

 Yihan Shao,  Zhengting Gan,  E. Epifanovsky,  A. T. B. Gilbert,  M. Wormit,  
 J. Kussmann,  A. W. Lange,  A. Behn,  Jia Deng,  Xintian Feng,  D. Ghosh,  
 M. Goldey,  P. R. Horn,  L. D. Jacobson,  I. Kaliman,  T. Kus,  A. Landau,  
 Jie Liu,  E. I. Proynov,  R. M. Richard,  R. P. Steele,  E. J. Sundstrom,  
 H. L. Woodcock III,  P. M. Zimmerman,  D. Zuev,  B. Alam,  B. Albrecht,  
 E. Alguire,  S. A. Baeppler,  D. Barton,  Z. Benda,  Y. A. Bernard,  
 E. J. Berquist,  K. B. Bravaya,  H. Burton,  K. Carter-Fenk,  D. Casanova,  
 Chun-Min Chang,  Yunqing Chen,  A. Chien,  K. D. Closser,  M. P. Coons,  
 S. Coriani,  S. Dasgupta,  A. L. Dempwolff,  M. Diedenhofen,  Hainam Do,  
 R. G. Edgar,  Po-Tung Fang,  S. Faraji,  S. Fatehi,  Qingguo Feng,  
 J. Fosso-Tande,  J. Gayvert,  Qinghui Ge,  A. Ghysels,  G. Gidofalvi,  
 J. Gomes,  J. Gonthier,  A. Gunina,  D. Hait,  M. W. D. Hanson-Heine,  
 P. H. P. Harbach,  A. W. Hauser,  M. F. Herbst,  J. E. Herr,  
 E. G. Hohenstein,  Z. C. Holden,  Kerwin Hui,  B. C. Huynh,  T.-C. Jagau,  
 Hyunjun Ji,  B. Kaduk,  K. Khistyaev,  Jaehoon Kim,  P. Klunzinger,  K. Koh,  
 D. Kosenkov,  L. Koulias,  T. Kowalczyk,  C. M. Krauter,  A. Kunitsa,  
 Ka Un Lao,  A. Laurent,  K. V. Lawler,  Joonho Lee,  D. Lefrancois,  
 S. Lehtola,  D. S. Levine,  Yi-Pei Li,  You-Sheng Lin,  Fenglai Liu,  
 Kuan-Yu Liu,  E. Livshits,  M. Loipersberger,  A. Luenser,  P. Manohar,  
 E. Mansoor,  S. F. Manzer,  Shan-Ping Mao,  Yuezhi Mao,  N. Mardirossian,  
 A. V. Marenich,  T. Markovich,  L. A. Martinez-Martinez,  S. A. Maurer,  
 N. J. Mayhall,  S. C. McKenzie,  J.-M. Mewes,  P. Morgante,  A. F. Morrison,  
 J. W. Mullinax,  K. Nanda,  T. S. Nguyen-Beck,  R. Olivares-Amaya,  
 K. J. Oosterbaan,  J. A. Parkhill,  S. K. Paul,  F. Pavosevic,  Zheng Pei,  
 T. M. Perrine,  F. Plasser,  P. Pokhilko,  S. Prager,  A. Prociuk,  
 E. Ramos,  B. Rana,  D. R. Rehn,  F. Rob,  M. Scheurer,  M. Schneider,  
 N. Sergueev,  S. M. Sharada,  S. Sharma,  D. W. Small,  T. Stauch,  
 C. J. Stein,  T. Stein,  Yu-Chuan Su,  S. P. Veccham,  Zhen Tao,  
 A. J. W. Thom,  A. Tkatchenko,  T. Tsuchimochi,  N. M. Tubman,  L. Vogt,  
 M. L. Vidal,  O. Vydrov,  M. A. Watson,  J. Wenzel,  M. de Wergifosse,  
 T. A. Wesolowski,  A. White,  J. Witte,  A. Yamada,  Jun Yang,  K. Yao,  
 S. Yeganeh,  S. R. Yost,  Zhi-Qiang You,  A. Zech,  Igor Ying Zhang,  
 Xing Zhang,  Yan Zhao,  Ying Zhu,  B. R. Brooks,  G. K. L. Chan,  
 C. J. Cramer,  M. S. Gordon,  W. J. Hehre,  A. Klamt,  M. W. Schmidt,  
 C. D. Sherrill,  D. G. Truhlar,  A. Aspuru-Guzik,  R. Baer,  A. T. Bell,  
 N. A. Besley,  Jeng-Da Chai,  A. E. DePrince, III,  R. A. DiStasio Jr.,  
 A. Dreuw,  B. D. Dunietz,  T. R. Furlani,  Chao-Ping Hsu,  Yousung Jung,  
 Jing Kong,  D. S. Lambrecht,  WanZhen Liang,  C. Ochsenfeld,  
 V. A. Rassolov,  L. V. Slipchenko,  J. E. Subotnik,  T. Van Voorhis,  
 J. M. Herbert,  A. I. Krylov,  P. M. W. Gill,  M. Head-Gordon

 Contributors to earlier versions of Q-Chem not listed above: 
 R. D. Adamson,  B. Austin,  J. Baker,  G. J. O. Beran,  K. Brandhorst,  
 S. T. Brown,  E. F. C. Byrd,  A. K. Chakraborty,  C.-L. Cheng,  
 Siu Hung Chien,  D. M. Chipman,  D. L. Crittenden,  H. Dachsel,  
 R. J. Doerksen,  A. D. Dutoi,  L. Fusti-Molnar,  W. A. Goddard III,  
 A. Golubeva-Zadorozhnaya,  S. R. Gwaltney,  G. Hawkins,  A. Heyden,  
 S. Hirata,  G. Kedziora,  F. J. Keil,  C. Kelley,  Jihan Kim,  R. A. King,  
 R. Z. Khaliullin,  P. P. Korambath,  W. Kurlancheek,  A. M. Lee,  M. S. Lee,  
 S. V. Levchenko,  Ching Yeh Lin,  D. Liotard,  R. C. Lochan,  I. Lotan,  
 P. E. Maslen,  N. Nair,  D. P. O'Neill,  D. Neuhauser,  E. Neuscamman,  
 C. M. Oana,  R. Olson,  B. Peters,  R. Peverati,  P. A. Pieniazek,  
 Y. M. Rhee,  J. Ritchie,  M. A. Rohrdanz,  E. Rosta,  N. J. Russ,  
 H. F. Schaefer III,  N. E. Schultz,  N. Shenvi,  A. C. Simmonett,  A. Sodt,  
 D. Stuck,  K. S. Thanthiriwatte,  V. Vanovschi,  Tao Wang,  A. Warshel,  
 C. F. Williams,  Q. Wu,  X. Xu,  W. Zhang

 Please cite Q-Chem as follows:
 Y. Shao et al., Mol. Phys. 113, 184-215 (2015)
 DOI: 10.1080/00268976.2014.952696

 Q-Chem 5.3.0 for Intel X86 EM64T Linux

 Parts of Q-Chem use Armadillo 9.800.1 (Horizon Scraper).
 http://arma.sourceforge.net/

 Q-Chem begins on Sun Jul 12 20:23:26 2020  

Host: centos77-c2
0

     Scratch files written to /tmp/28905.centos77-h1/qchem122295//
Processing $rem in /opt/qchem-5.3.0-intel2020u1//config/preferences:
Processing $rem in /home/shihchengli/.qchemrc:

Checking the input file for inconsistencies... 	...done.

--------------------------------------------------------------
User input:
--------------------------------------------------------------
$rem
   JOBTYPE  sp
   EXCHANGE   omegaB97X-D
   BASIS   6-311+G(2df,2pd)
   UNRESTRICTED   True
   max_scf_cycles   250
   geom_opt_max_cycles   1500
   basis2 6-31G*
   scf_algorithm rca_diis
   SYM_IGNORE  TRUE
   print_input   true
   geom_opt_dmax   80
   pop_mulliken false
   XC_GRID 000075000302
$end

$molecule
0 2
N       0.0509882572     -0.0507463024     -0.0000000000
O       0.0256353085     -1.2441970766     0.0000000000
O       -1.0651679925     0.6864900952     0.0000000000
O       0.9885447086     0.6045252059     0.0000000000
$end
--------------------------------------------------------------
 ----------------------------------------------------------------
             Standard Nuclear Orientation (Angstroms)
    I     Atom           X                Y                Z
 ----------------------------------------------------------------
    1      N       0.0509882572    -0.0507463024     0.0000000000
    2      O       0.0256353085    -1.2441970766     0.0000000000
    3      O      -1.0651679925     0.6864900952     0.0000000000
    4      O       0.9885447086     0.6045252059     0.0000000000
 ----------------------------------------------------------------
 Nuclear Repulsion Energy =         120.88338905 hartrees
 There are       16 alpha and       15 beta electrons
 Requested basis set is 6-311+G(2df,2pd)
 There are 32 shells and 136 basis functions

 Total QAlloc Memory Limit   2000 MB
 Mega-Array Size       188 MB
 MEM_STATIC part       192 MB

                       Distance Matrix (Angstroms)
             N (  1)   O (  2)   O (  3)
   O (  2)  1.193720
   O (  3)  1.337656  2.217522
   O (  4)  1.143850  2.084459  2.055348
 
 A cutoff of  1.0D-09 yielded    512 shell pairs
 There are      9503 function pairs (     12563 Cartesian)
 Smallest overlap matrix eigenvalue = 1.00E-03

 Scale SEOQF with 1.000000e-01/1.000000e-01/1.000000e-01

 Standard Electronic Orientation quadrupole field applied
 Nucleus-field energy     =     0.0000000020 hartrees
 Requested basis set is 6-31G(d)
 There are 16 shells and 56 basis functions
 A cutoff of  1.0D-09 yielded    133 shell pairs
 There are      1681 function pairs (      1935 Cartesian)
 Smallest overlap matrix eigenvalue = 5.29E-03
 Guess from superposition of atomic densities
 Warning:  Energy on first SCF cycle will be non-variational
 SAD guess density has 31.000000 electrons
 Long-range K will be added via erf
 Coulomb attenuation parameter = 0.2 bohr**(-1)
 An unrestricted hybrid HF-DFT SCF calculation will be
 performed using Relaxed Constraint Minimization + Pulay DIIS
 Exchange:     0.2220 Hartree-Fock + 1.0000 wB97X-D + LR-HF
 Correlation:  1.0000 wB97X-D
 Using Euler-Maclaurin-Lebedev (75,302) quadrature formula
 Dispersion:   Grimme D
 SCF converges when DIIS error is below 1.0E-04
 using 6 threads for integral computing
 -------------------------------------------------------
 OpenMP Integral computing Module                
 Release: version 1.0, May 2013, Q-Chem Inc. Pittsburgh 
 -------------------------------------------------------
 using 6 threads for integral computing
 -------------------------------------------------------
 OpenMP Integral computing Module                
 Release: version 1.0, May 2013, Q-Chem Inc. Pittsburgh 
 -------------------------------------------------------
 ---------------------------------------
  Cycle       Energy         DIIS Error
 ---------------------------------------
    1    -281.0833970144      1.18E-01
    2    -279.9036137807      2.58E-02
    3    -279.9874628372      4.36E-03
    4    -280.0968230326      4.35E-03
    5    -280.0993276106      9.06E-04 Done RCA. Switching to DIIS
    6    -280.1033000404      8.33E-04
    7    -280.1039434990      5.76E-04
    8    -280.1042052410      3.69E-04
    9    -280.1047296844      1.41E-04
   10    -280.1048075572      2.07E-05 Convergence criterion met
 ---------------------------------------
 <S^2> = 0.7546
 SCF time:  CPU 21.54 s  wall 5.59 s
 SCF   energy in the small basis set = -280.10480756
 Total energy in the small basis set = -280.10480756
 ----------------------------------------------------
  Cycle       Energy    
 ----------------------------------------------------
    1     -28.3986253146     -2.84E+01
 Long-range K will be added via erf
 Coulomb attenuation parameter = 0.2 bohr**(-1)
 An unrestricted hybrid HF-DFT SCF calculation will be
 performed using Relaxed Constraint Minimization + Pulay DIIS
 Exchange:     0.2220 Hartree-Fock + 1.0000 wB97X-D + LR-HF
 Correlation:  1.0000 wB97X-D
 Using Euler-Maclaurin-Lebedev (75,302) quadrature formula
 Dispersion:   Grimme D
 SCF converges when DIIS error is below 1.0E-05
 Basis2 calculation detected. Using small basis as guess for larger.
 SCFMinFind is unable to tell whether the solution found is close.
 Resetting ReadMinima to 0 and attempting to follow guess.
 SCFMinFind following SCF Guess.
 using 6 threads for integral computing
 -------------------------------------------------------
 OpenMP Integral computing Module                
 Release: version 1.0, May 2013, Q-Chem Inc. Pittsburgh 
 -------------------------------------------------------
 using 6 threads for integral computing
 -------------------------------------------------------
 OpenMP Integral computing Module                
 Release: version 1.0, May 2013, Q-Chem Inc. Pittsburgh 
 -------------------------------------------------------
 ---------------------------------------
  Cycle       Energy         DIIS Error
 ---------------------------------------
    1    -280.1525236645      1.03E-02
    2    -280.1001151259      8.45E-03
    3    -280.1402983485      2.76E-03
    4    -280.1941609934      1.16E-03
    5    -280.2051091893      2.05E-03
    6    -280.2082934442      4.17E-04 Done RCA. Switching to DIIS
    7    -280.2141998844      5.64E-04
    8    -280.2152625290      1.24E-04
    9    -280.2155927643      8.20E-05
   10    -280.2156882482      1.70E-05
   11    -280.2156929040      3.12E-06 Convergence criterion met
 ---------------------------------------
 <S^2> = 0.7559
 SCF time:  CPU 56.47 s  wall 11.27 s
 SCF   energy in the final basis set = -280.21569290
 Total energy in the final basis set = -280.21569290
 
 --------------------------------------------------------------
 
                    Orbital Energies (a.u.)
 --------------------------------------------------------------
 
 Alpha MOs
 -- Occupied --
-19.4078 -19.3698 -19.3501 -14.7809  -1.4872  -1.2734  -1.2268  -0.7905
 -0.7427  -0.7210  -0.6973  -0.5650  -0.5032  -0.4980  -0.4758  -0.4549
 -- Virtual --
 -0.0165   0.0836   0.1371   0.1386   0.1572   0.1696   0.2393   0.2414
  0.2555   0.2580   0.2608   0.3254   0.3329   0.3419   0.3492   0.3495
  0.4076   0.4353   0.4426   0.5155   0.7566   0.8047   0.8444   0.9096
  0.9604   0.9902   1.0421   1.0458   1.0608   1.0709   1.0717   1.1093
  1.1167   1.1512   1.1813   1.3353   1.3858   1.4732   1.5046   1.5554
  1.5741   1.5781   1.5870   1.6325   1.7766   1.8680   1.9544   1.9597
  1.9895   2.2475   2.3426   2.3466   2.5020   2.5436   2.6885   2.7886
  3.6150   3.6504   3.6683   3.6835   3.7724   4.0092   4.0303   4.1171
  4.3785   4.4065   4.4469   4.4793   4.5733   4.6139   4.6732   4.9723
  4.9724   4.9859   4.9923   5.0146   5.0244   5.0380   5.0583   5.0747
  5.1089   5.1236   5.1484   5.1864   5.1867   5.3334   5.3558   5.4364
  5.5481   5.6619   5.7748   5.8527   6.0820   6.1242   6.3554   6.6395
  6.6835   6.7129   6.7558   6.7840   6.7846   6.8185   6.8353   6.9022
  7.0314   7.1291   7.1816   7.2265   7.2419   7.3359   7.5602   7.5932
  7.8237   7.8831   7.9315   8.2112  36.2396  49.9707  50.2257  50.3061
 
 Beta MOs
 -- Occupied --
-19.3894 -19.3639 -19.3474 -14.7817  -1.4785  -1.2650  -1.1843  -0.7695
 -0.7407  -0.7016  -0.6812  -0.4754  -0.4750  -0.4713  -0.4594
 -- Virtual --
 -0.1611  -0.0137   0.0850   0.1372   0.1380   0.1569   0.1799   0.2392
  0.2430   0.2578   0.2596   0.2603   0.3271   0.3321   0.3409   0.3488
  0.3491   0.4145   0.4384   0.4467   0.5249   0.7561   0.8064   0.8525
  0.9158   0.9626   0.9925   1.0449   1.0633   1.0675   1.0765   1.0771
  1.1141   1.1199   1.1745   1.1841   1.3420   1.3994   1.4975   1.5248
  1.5607   1.5855   1.5932   1.5985   1.6419   1.7918   1.8752   1.9631
  1.9632   2.0135   2.2507   2.3467   2.3622   2.5048   2.5478   2.7029
  2.7967   3.6142   3.6517   3.6690   3.6836   3.7744   4.0188   4.0304
  4.1249   4.3846   4.4105   4.4465   4.4877   4.5783   4.6201   4.6723
  4.9976   5.0016   5.0261   5.0344   5.0369   5.0486   5.0612   5.0846
  5.0959   5.1271   5.1355   5.1706   5.1960   5.2035   5.3528   5.3779
  5.4465   5.5596   5.6735   5.7863   5.8606   6.1059   6.1330   6.3808
  6.6515   6.7150   6.7622   6.7762   6.8072   6.8296   6.8395   6.8524
  6.9053   7.0678   7.1466   7.1858   7.2478   7.2482   7.3771   7.5733
  7.6027   7.8316   7.8934   7.9432   8.2167  36.2388  49.9902  50.2284
 50.3112
 --------------------------------------------------------------
 
 -----------------------------------------------------------------
                    Cartesian Multipole Moments
 -----------------------------------------------------------------
    Charge (ESU x 10^10)
                -0.0000
    Dipole Moment (Debye)
         X      -0.1731      Y       0.3686      Z      -0.0000
       Tot       0.4072
    Quadrupole Moments (Debye-Ang)
        XX     -22.1257     XY      -0.0990     YY     -23.1004
        XZ      -0.0000     YZ       0.0000     ZZ     -20.0204
    Octopole Moments (Debye-Ang^2)
       XXX      -0.5425    XXY      -0.5749    XYY      -0.0006
       YYY       2.1378    XXZ      -0.0000    XYZ       0.0000
       YYZ      -0.0000    XZZ       0.5699    YZZ      -0.1085
       ZZZ      -0.0000
    Hexadecapole Moments (Debye-Ang^3)
      XXXX     -82.3015   XXXY       2.6773   XXYY     -29.7693
      XYYY       2.1966   YYYY     -93.3425   XXXZ       0.0000
      XXYZ      -0.0000   XYYZ      -0.0000   YYYZ       0.0000
      XXZZ     -16.7170   XYZZ       1.1590   YYZZ     -18.1335
      XZZZ      -0.0000   YZZZ      -0.0000   ZZZZ     -14.9995
 -----------------------------------------------------------------
Archival summary:
1\1\centos77-c2\SP\ProcedureUnspecified\BasisUnspecified\31(2)\shihchen\SunJul1220:23:442020SunJul1220:23:442020\0\\#,ProcedureUnspecified,BasisUnspecified,\\0,2\N\O,1,1.14385\O,1,1.19372,2,126.167\O,1,1.33766,2,111.604,3,-180,0\\\@

 Total job time:  18.15s(wall), 81.11s(cpu) 
 Sun Jul 12 20:23:44 2020

        *************************************************************
        *                                                           *
        *  Thank you very much for using Q-Chem.  Have a nice day.  *
        *                                                           *
        *************************************************************


