                  Welcome to Q-Chem
     A Quantum Leap Into The Future Of Chemistry


 Q-Chem 5.3 (devel), Q-Chem, Inc., Pleasanton, CA (2020)

 Yihan Shao,  Zhengting Gan,  E. Epifanovsky,  A. T. B. Gilbert,  M. Wormit,  
 J. Kussmann,  A. W. Lange,  A. Behn,  Jia Deng,  Xintian Feng,  D. Ghosh,  
 M. Goldey,  P. R. Horn,  L. D. Jacobson,  I. Kaliman,  T. Kus,  A. Landau,  
 Jie Liu,  E. I. Proynov,  R. M. Richard,  R. P. Steele,  E. J. Sundstrom,  
 H. L. Woodcock III,  P. M. Zimmerman,  D. Zuev,  B. Alam,  B. Albrecht,  
 E. Alguire,  S. A. Baeppler,  D. Barton,  Z. Benda,  Y. A. Bernard,  
 E. J. Berquist,  K. B. Bravaya,  H. Burton,  K. Carter-Fenk,  D. Casanova,  
 Chun-Min Chang,  Yunqing Chen,  A. Chien,  K. D. Closser,  M. P. Coons,  
 S. Coriani,  S. Dasgupta,  A. L. Dempwolff,  M. Diedenhofen,  Hainam Do,  
 R. G. Edgar,  Po-Tung Fang,  S. Faraji,  S. Fatehi,  Qingguo Feng,  
 J. Fosso-Tande,  J. Gayvert,  Qinghui Ge,  A. Ghysels,  G. Gidofalvi,  
 J. Gomes,  J. Gonthier,  A. Gunina,  D. Hait,  M. W. D. Hanson-Heine,  
 P. H. P. Harbach,  A. W. Hauser,  M. F. Herbst,  J. E. Herr,  
 E. G. Hohenstein,  Z. C. Holden,  Kerwin Hui,  B. C. Huynh,  T.-C. Jagau,  
 Hyunjun Ji,  B. Kaduk,  K. Khistyaev,  Jaehoon Kim,  P. Klunzinger,  K. Koh,  
 D. Kosenkov,  L. Koulias,  T. Kowalczyk,  C. M. Krauter,  A. Kunitsa,  
 Ka Un Lao,  A. Laurent,  K. V. Lawler,  Joonho Lee,  D. Lefrancois,  
 S. Lehtola,  D. S. Levine,  Yi-Pei Li,  You-Sheng Lin,  Fenglai Liu,  
 Kuan-Yu Liu,  E. Livshits,  M. Loipersberger,  A. Luenser,  P. Manohar,  
 E. Mansoor,  S. F. Manzer,  Shan-Ping Mao,  Yuezhi Mao,  N. Mardirossian,  
 A. V. Marenich,  T. Markovich,  L. A. Martinez-Martinez,  S. A. Maurer,  
 N. J. Mayhall,  S. C. McKenzie,  J.-M. Mewes,  P. Morgante,  A. F. Morrison,  
 J. W. Mullinax,  K. Nanda,  T. S. Nguyen-Beck,  R. Olivares-Amaya,  
 K. J. Oosterbaan,  J. A. Parkhill,  S. K. Paul,  F. Pavosevic,  Zheng Pei,  
 T. M. Perrine,  F. Plasser,  P. Pokhilko,  S. Prager,  A. Prociuk,  
 E. Ramos,  B. Rana,  D. R. Rehn,  F. Rob,  M. Scheurer,  M. Schneider,  
 N. Sergueev,  S. M. Sharada,  S. Sharma,  D. W. Small,  T. Stauch,  
 C. J. Stein,  T. Stein,  Yu-Chuan Su,  S. P. Veccham,  Zhen Tao,  
 A. J. W. Thom,  A. Tkatchenko,  T. Tsuchimochi,  N. M. Tubman,  L. Vogt,  
 M. L. Vidal,  O. Vydrov,  M. A. Watson,  J. Wenzel,  M. de Wergifosse,  
 T. A. Wesolowski,  A. White,  J. Witte,  A. Yamada,  Jun Yang,  K. Yao,  
 S. Yeganeh,  S. R. Yost,  Zhi-Qiang You,  A. Zech,  Igor Ying Zhang,  
 Xing Zhang,  Yan Zhao,  Ying Zhu,  B. R. Brooks,  G. K. L. Chan,  
 C. J. Cramer,  M. S. Gordon,  W. J. Hehre,  A. Klamt,  M. W. Schmidt,  
 C. D. Sherrill,  D. G. Truhlar,  A. Aspuru-Guzik,  R. Baer,  A. T. Bell,  
 N. A. Besley,  Jeng-Da Chai,  A. E. DePrince, III,  R. A. DiStasio Jr.,  
 A. Dreuw,  B. D. Dunietz,  T. R. Furlani,  Chao-Ping Hsu,  Yousung Jung,  
 Jing Kong,  D. S. Lambrecht,  WanZhen Liang,  C. Ochsenfeld,  
 V. A. Rassolov,  L. V. Slipchenko,  J. E. Subotnik,  T. Van Voorhis,  
 J. M. Herbert,  A. I. Krylov,  P. M. W. Gill,  M. Head-Gordon

 Contributors to earlier versions of Q-Chem not listed above: 
 R. D. Adamson,  B. Austin,  J. Baker,  G. J. O. Beran,  K. Brandhorst,  
 S. T. Brown,  E. F. C. Byrd,  A. K. Chakraborty,  C.-L. Cheng,  
 Siu Hung Chien,  D. M. Chipman,  D. L. Crittenden,  H. Dachsel,  
 R. J. Doerksen,  A. D. Dutoi,  L. Fusti-Molnar,  W. A. Goddard III,  
 A. Golubeva-Zadorozhnaya,  S. R. Gwaltney,  G. Hawkins,  A. Heyden,  
 S. Hirata,  G. Kedziora,  F. J. Keil,  C. Kelley,  Jihan Kim,  R. A. King,  
 R. Z. Khaliullin,  P. P. Korambath,  W. Kurlancheek,  A. M. Lee,  M. S. Lee,  
 S. V. Levchenko,  Ching Yeh Lin,  D. Liotard,  R. C. Lochan,  I. Lotan,  
 P. E. Maslen,  N. Nair,  D. P. O'Neill,  D. Neuhauser,  E. Neuscamman,  
 C. M. Oana,  R. Olson,  B. Peters,  R. Peverati,  P. A. Pieniazek,  
 Y. M. Rhee,  J. Ritchie,  M. A. Rohrdanz,  E. Rosta,  N. J. Russ,  
 H. F. Schaefer III,  N. E. Schultz,  N. Shenvi,  A. C. Simmonett,  A. Sodt,  
 D. Stuck,  K. S. Thanthiriwatte,  V. Vanovschi,  Tao Wang,  A. Warshel,  
 C. F. Williams,  Q. Wu,  X. Xu,  W. Zhang

 Please cite Q-Chem as follows:
 Y. Shao et al., Mol. Phys. 113, 184-215 (2015)
 DOI: 10.1080/00268976.2014.952696

 Q-Chem 5.3.0 for Intel X86 EM64T Linux

 Parts of Q-Chem use Armadillo 9.800.1 (Horizon Scraper).
 http://arma.sourceforge.net/

 Q-Chem begins on Sun Jul 12 20:27:37 2020  

Host: centos77-c2
0

     Scratch files written to /tmp/28905.centos77-h1/qchem123175//
Processing $rem in /opt/qchem-5.3.0-intel2020u1//config/preferences:
Processing $rem in /home/shihchengli/.qchemrc:

Checking the input file for inconsistencies... 	...done.

--------------------------------------------------------------
User input:
--------------------------------------------------------------
$rem
   JOBTYPE  sp
   EXCHANGE   omegaB97X-D
   BASIS   6-311+G(2df,2pd)
   UNRESTRICTED   True
   max_scf_cycles   250
   geom_opt_max_cycles   1500
   basis2 6-31G*
   scf_algorithm rca_diis
   SYM_IGNORE  TRUE
   print_input   true
   geom_opt_dmax   80
   pop_mulliken false
   XC_GRID 000075000302
$end

$molecule
0 2
N       0.0005178031     -0.0995909912     -0.0000000000
O       0.0003220324     -1.3545923982     0.0000000000
O       -1.1671722792     0.7256285457     0.0000000000
O       1.1663327255     0.7246267657     0.0000000000
$end
--------------------------------------------------------------
 ----------------------------------------------------------------
             Standard Nuclear Orientation (Angstroms)
    I     Atom           X                Y                Z
 ----------------------------------------------------------------
    1      N       0.0005178031    -0.0995909912     0.0000000000
    2      O       0.0003220324    -1.3545923982     0.0000000000
    3      O      -1.1671722792     0.7256285457     0.0000000000
    4      O       1.1663327255     0.7246267657     0.0000000000
 ----------------------------------------------------------------
 Nuclear Repulsion Energy =         108.01132780 hartrees
 There are       16 alpha and       15 beta electrons
 Requested basis set is 6-311+G(2df,2pd)
 There are 32 shells and 136 basis functions

 Total QAlloc Memory Limit   2000 MB
 Mega-Array Size       188 MB
 MEM_STATIC part       192 MB

                       Distance Matrix (Angstroms)
             N (  1)   O (  2)   O (  3)
   O (  2)  1.255001
   O (  3)  1.429856  2.385448
   O (  4)  1.427746  2.383848  2.333505
 
 A cutoff of  1.0D-09 yielded    501 shell pairs
 There are      9276 function pairs (     12279 Cartesian)
 Smallest overlap matrix eigenvalue = 1.25E-03

 Scale SEOQF with 1.000000e-01/1.000000e-01/1.000000e-01

 Standard Electronic Orientation quadrupole field applied
 Nucleus-field energy     =     0.0000000024 hartrees
 Requested basis set is 6-31G(d)
 There are 16 shells and 56 basis functions
 A cutoff of  1.0D-09 yielded    133 shell pairs
 There are      1681 function pairs (      1935 Cartesian)
 Smallest overlap matrix eigenvalue = 8.02E-03
 Guess from superposition of atomic densities
 Warning:  Energy on first SCF cycle will be non-variational
 SAD guess density has 31.000000 electrons
 Long-range K will be added via erf
 Coulomb attenuation parameter = 0.2 bohr**(-1)
 An unrestricted hybrid HF-DFT SCF calculation will be
 performed using Relaxed Constraint Minimization + Pulay DIIS
 Exchange:     0.2220 Hartree-Fock + 1.0000 wB97X-D + LR-HF
 Correlation:  1.0000 wB97X-D
 Using Euler-Maclaurin-Lebedev (75,302) quadrature formula
 Dispersion:   Grimme D
 SCF converges when DIIS error is below 1.0E-04
 using 6 threads for integral computing
 -------------------------------------------------------
 OpenMP Integral computing Module                
 Release: version 1.0, May 2013, Q-Chem Inc. Pittsburgh 
 -------------------------------------------------------
 using 6 threads for integral computing
 -------------------------------------------------------
 OpenMP Integral computing Module                
 Release: version 1.0, May 2013, Q-Chem Inc. Pittsburgh 
 -------------------------------------------------------
 ---------------------------------------
  Cycle       Energy         DIIS Error
 ---------------------------------------
    1    -280.1819760608      8.25E-02
    2    -279.7911129660      2.84E-02
    3    -279.8938562049      6.23E-03
    4    -280.0343071351      7.90E-03
    5    -280.0429676795      1.08E-03
    6    -280.0565831533      1.30E-03
    7    -280.0569052122      2.81E-04 Done RCA. Switching to DIIS
    8    -280.0576473041      2.69E-04
    9    -280.0579977396      1.39E-04
   10    -280.0581027598      1.14E-04
   11    -280.0581876620      3.19E-05 Convergence criterion met
 ---------------------------------------
 <S^2> = 0.7654
 SCF time:  CPU 19.73 s  wall 3.95 s
 SCF   energy in the small basis set = -280.05818766
 Total energy in the small basis set = -280.05818766
 ----------------------------------------------------
  Cycle       Energy    
 ----------------------------------------------------
    1     -28.0769889887     -2.81E+01
 Long-range K will be added via erf
 Coulomb attenuation parameter = 0.2 bohr**(-1)
 An unrestricted hybrid HF-DFT SCF calculation will be
 performed using Relaxed Constraint Minimization + Pulay DIIS
 Exchange:     0.2220 Hartree-Fock + 1.0000 wB97X-D + LR-HF
 Correlation:  1.0000 wB97X-D
 Using Euler-Maclaurin-Lebedev (75,302) quadrature formula
 Dispersion:   Grimme D
 SCF converges when DIIS error is below 1.0E-05
 Basis2 calculation detected. Using small basis as guess for larger.
 SCFMinFind is unable to tell whether the solution found is close.
 Resetting ReadMinima to 0 and attempting to follow guess.
 SCFMinFind following SCF Guess.
 using 6 threads for integral computing
 -------------------------------------------------------
 OpenMP Integral computing Module                
 Release: version 1.0, May 2013, Q-Chem Inc. Pittsburgh 
 -------------------------------------------------------
 using 6 threads for integral computing
 -------------------------------------------------------
 OpenMP Integral computing Module                
 Release: version 1.0, May 2013, Q-Chem Inc. Pittsburgh 
 -------------------------------------------------------
 ---------------------------------------
  Cycle       Energy         DIIS Error
 ---------------------------------------
    1    -280.1160192481      9.99E-03
    2    -280.1137504005      5.69E-03
    3    -280.1320382452      1.45E-03
    4    -280.1566678655      1.39E-03
    5    -280.1586366452      1.93E-04 Done RCA. Switching to DIIS
    6    -280.1620517263      2.28E-04
    7    -280.1622561296      1.42E-04
    8    -280.1624594232      4.12E-05
    9    -280.1626060720      2.27E-05
   10    -280.1626433966      1.04E-05
   11    -280.1626486470      3.75E-06 Convergence criterion met
 ---------------------------------------
 <S^2> = 0.7682
 SCF time:  CPU 45.24 s  wall 8.75 s
 SCF   energy in the final basis set = -280.16264865
 Total energy in the final basis set = -280.16264865
 
 --------------------------------------------------------------
 
                    Orbital Energies (a.u.)
 --------------------------------------------------------------
 
 Alpha MOs
 -- Occupied --
-19.4053 -19.4040 -19.3923 -14.7832  -1.3651  -1.2030  -1.1593  -0.8224
 -0.6851  -0.6848  -0.6667  -0.5357  -0.5073  -0.4805  -0.4795  -0.4715
 -- Virtual --
 -0.0874   0.0214   0.1085   0.1231   0.1422   0.1504   0.1647   0.2362
  0.2444   0.2578   0.2596   0.2638   0.3187   0.3200   0.3309   0.3361
  0.3382   0.3567   0.4409   0.4432   0.7646   0.8157   0.8640   0.8781
  0.9358   1.0003   1.0082   1.0621   1.0680   1.0718   1.0891   1.1027
  1.1167   1.1510   1.1635   1.3359   1.3950   1.4539   1.4850   1.5015
  1.5204   1.5681   1.5905   1.5946   1.6479   1.6890   1.7642   1.8199
  1.8494   2.0553   2.1892   2.2938   2.3469   2.3958   2.5028   2.5291
  3.5599   3.5941   3.6396   3.6591   3.6992   3.8014   3.8359   3.9390
  4.0509   4.3005   4.6279   4.6423   4.7339   4.7532   4.7669   4.9688
  4.9786   4.9803   5.0030   5.0210   5.0214   5.0231   5.0241   5.0338
  5.0516   5.0533   5.0926   5.0992   5.1238   5.1279   5.2128   5.2707
  5.2979   5.4400   5.5870   5.6147   5.6909   5.7791   5.7856   5.9215
  6.3078   6.3958   6.4832   6.6965   6.7152   6.7389   6.7454   6.7593
  6.7875   6.8656   7.0683   7.0745   7.0777   7.1157   7.1524   7.2358
  7.3338   7.5546   7.7234   7.8518  35.6182  49.9015  49.9294  50.0751
 
 Beta MOs
 -- Occupied --
-19.3930 -19.3914 -19.3904 -14.7842  -1.3601  -1.1823  -1.1198  -0.8068
 -0.6717  -0.6702  -0.6666  -0.4734  -0.4725  -0.4563  -0.4340
 -- Virtual --
 -0.1801  -0.0866   0.0351   0.1111   0.1277   0.1417   0.1543   0.1646
  0.2369   0.2448   0.2571   0.2601   0.2657   0.3205   0.3214   0.3338
  0.3352   0.3382   0.3633   0.4432   0.4436   0.7643   0.8212   0.8668
  0.8859   0.9374   1.0015   1.0104   1.0725   1.0727   1.0769   1.0956
  1.1125   1.1181   1.1669   1.1807   1.3378   1.4100   1.4754   1.5016
  1.5034   1.5480   1.5738   1.6007   1.6089   1.6555   1.6956   1.7913
  1.8318   1.8530   2.0585   2.1925   2.3039   2.3572   2.4027   2.5117
  2.5365   3.5599   3.5953   3.6409   3.6575   3.6988   3.8087   3.8348
  3.9440   4.0555   4.3017   4.6293   4.6482   4.7432   4.7503   4.7669
  4.9923   5.0102   5.0105   5.0273   5.0287   5.0464   5.0514   5.0550
  5.0660   5.0689   5.0728   5.1013   5.1203   5.1487   5.1608   5.2374
  5.2756   5.3003   5.4594   5.6015   5.6310   5.6986   5.7864   5.8065
  5.9299   6.3062   6.4051   6.4985   6.7305   6.7633   6.7772   6.7828
  6.7906   6.7942   6.8998   7.0834   7.0932   7.0953   7.1356   7.1512
  7.2783   7.3494   7.5609   7.7402   7.8592  35.6170  49.9154  49.9433
 50.0744
 --------------------------------------------------------------
 
 -----------------------------------------------------------------
                    Cartesian Multipole Moments
 -----------------------------------------------------------------
    Charge (ESU x 10^10)
                 0.0000
    Dipole Moment (Debye)
         X      -0.0196      Y      -0.3173      Z       0.0000
       Tot       0.3179
    Quadrupole Moments (Debye-Ang)
        XX     -22.1930     XY      -0.0100     YY     -22.9792
        XZ      -0.0000     YZ      -0.0000     ZZ     -20.8105
    Octopole Moments (Debye-Ang^2)
       XXX      -0.0537    XXY      -0.2665    XYY      -0.0109
       YYY       0.0137    XXZ      -0.0000    XYZ      -0.0000
       YYZ       0.0000    XZZ       0.0017    YZZ      -0.8605
       ZZZ      -0.0000
    Hexadecapole Moments (Debye-Ang^3)
      XXXX     -99.7706   XXXY       0.0268   XXYY     -35.2018
      XYYY       0.0060   YYYY    -108.3788   XXXZ      -0.0000
      XXYZ      -0.0000   XYYZ       0.0000   YYYZ      -0.0000
      XXZZ     -20.7161   XYZZ       0.0136   YYZZ     -20.9337
      XZZZ      -0.0000   YZZZ      -0.0000   ZZZZ     -16.2318
 -----------------------------------------------------------------
Archival summary:
1\1\centos77-c2\SP\ProcedureUnspecified\BasisUnspecified\31(2)\shihchen\SunJul1220:27:512020SunJul1220:27:512020\0\\#,ProcedureUnspecified,BasisUnspecified,\\0,2\N\O,1,1.255\O,1,1.42775,2,125.269\O,1,1.42986,2,125.24,3,-180,0\\\@

 Total job time:  14.31s(wall), 68.57s(cpu) 
 Sun Jul 12 20:27:51 2020

        *************************************************************
        *                                                           *
        *  Thank you very much for using Q-Chem.  Have a nice day.  *
        *                                                           *
        *************************************************************


