                  Welcome to Q-Chem
     A Quantum Leap Into The Future Of Chemistry


 Q-Chem 5.3 (devel), Q-Chem, Inc., Pleasanton, CA (2020)

 Yihan Shao,  Zhengting Gan,  E. Epifanovsky,  A. T. B. Gilbert,  M. Wormit,  
 J. Kussmann,  A. W. Lange,  A. Behn,  Jia Deng,  Xintian Feng,  D. Ghosh,  
 M. Goldey,  P. R. Horn,  L. D. Jacobson,  I. Kaliman,  T. Kus,  A. Landau,  
 Jie Liu,  E. I. Proynov,  R. M. Richard,  R. P. Steele,  E. J. Sundstrom,  
 H. L. Woodcock III,  P. M. Zimmerman,  D. Zuev,  B. Alam,  B. Albrecht,  
 E. Alguire,  S. A. Baeppler,  D. Barton,  Z. Benda,  Y. A. Bernard,  
 E. J. Berquist,  K. B. Bravaya,  H. Burton,  K. Carter-Fenk,  D. Casanova,  
 Chun-Min Chang,  Yunqing Chen,  A. Chien,  K. D. Closser,  M. P. Coons,  
 S. Coriani,  S. Dasgupta,  A. L. Dempwolff,  M. Diedenhofen,  Hainam Do,  
 R. G. Edgar,  Po-Tung Fang,  S. Faraji,  S. Fatehi,  Qingguo Feng,  
 J. Fosso-Tande,  J. Gayvert,  Qinghui Ge,  A. Ghysels,  G. Gidofalvi,  
 J. Gomes,  J. Gonthier,  A. Gunina,  D. Hait,  M. W. D. Hanson-Heine,  
 P. H. P. Harbach,  A. W. Hauser,  M. F. Herbst,  J. E. Herr,  
 E. G. Hohenstein,  Z. C. Holden,  Kerwin Hui,  B. C. Huynh,  T.-C. Jagau,  
 Hyunjun Ji,  B. Kaduk,  K. Khistyaev,  Jaehoon Kim,  P. Klunzinger,  K. Koh,  
 D. Kosenkov,  L. Koulias,  T. Kowalczyk,  C. M. Krauter,  A. Kunitsa,  
 Ka Un Lao,  A. Laurent,  K. V. Lawler,  Joonho Lee,  D. Lefrancois,  
 S. Lehtola,  D. S. Levine,  Yi-Pei Li,  You-Sheng Lin,  Fenglai Liu,  
 Kuan-Yu Liu,  E. Livshits,  M. Loipersberger,  A. Luenser,  P. Manohar,  
 E. Mansoor,  S. F. Manzer,  Shan-Ping Mao,  Yuezhi Mao,  N. Mardirossian,  
 A. V. Marenich,  T. Markovich,  L. A. Martinez-Martinez,  S. A. Maurer,  
 N. J. Mayhall,  S. C. McKenzie,  J.-M. Mewes,  P. Morgante,  A. F. Morrison,  
 J. W. Mullinax,  K. Nanda,  T. S. Nguyen-Beck,  R. Olivares-Amaya,  
 K. J. Oosterbaan,  J. A. Parkhill,  S. K. Paul,  F. Pavosevic,  Zheng Pei,  
 T. M. Perrine,  F. Plasser,  P. Pokhilko,  S. Prager,  A. Prociuk,  
 E. Ramos,  B. Rana,  D. R. Rehn,  F. Rob,  M. Scheurer,  M. Schneider,  
 N. Sergueev,  S. M. Sharada,  S. Sharma,  D. W. Small,  T. Stauch,  
 C. J. Stein,  T. Stein,  Yu-Chuan Su,  S. P. Veccham,  Zhen Tao,  
 A. J. W. Thom,  A. Tkatchenko,  T. Tsuchimochi,  N. M. Tubman,  L. Vogt,  
 M. L. Vidal,  O. Vydrov,  M. A. Watson,  J. Wenzel,  M. de Wergifosse,  
 T. A. Wesolowski,  A. White,  J. Witte,  A. Yamada,  Jun Yang,  K. Yao,  
 S. Yeganeh,  S. R. Yost,  Zhi-Qiang You,  A. Zech,  Igor Ying Zhang,  
 Xing Zhang,  Yan Zhao,  Ying Zhu,  B. R. Brooks,  G. K. L. Chan,  
 C. J. Cramer,  M. S. Gordon,  W. J. Hehre,  A. Klamt,  M. W. Schmidt,  
 C. D. Sherrill,  D. G. Truhlar,  A. Aspuru-Guzik,  R. Baer,  A. T. Bell,  
 N. A. Besley,  Jeng-Da Chai,  A. E. DePrince, III,  R. A. DiStasio Jr.,  
 A. Dreuw,  B. D. Dunietz,  T. R. Furlani,  Chao-Ping Hsu,  Yousung Jung,  
 Jing Kong,  D. S. Lambrecht,  WanZhen Liang,  C. Ochsenfeld,  
 V. A. Rassolov,  L. V. Slipchenko,  J. E. Subotnik,  T. Van Voorhis,  
 J. M. Herbert,  A. I. Krylov,  P. M. W. Gill,  M. Head-Gordon

 Contributors to earlier versions of Q-Chem not listed above: 
 R. D. Adamson,  B. Austin,  J. Baker,  G. J. O. Beran,  K. Brandhorst,  
 S. T. Brown,  E. F. C. Byrd,  A. K. Chakraborty,  C.-L. Cheng,  
 Siu Hung Chien,  D. M. Chipman,  D. L. Crittenden,  H. Dachsel,  
 R. J. Doerksen,  A. D. Dutoi,  L. Fusti-Molnar,  W. A. Goddard III,  
 A. Golubeva-Zadorozhnaya,  S. R. Gwaltney,  G. Hawkins,  A. Heyden,  
 S. Hirata,  G. Kedziora,  F. J. Keil,  C. Kelley,  Jihan Kim,  R. A. King,  
 R. Z. Khaliullin,  P. P. Korambath,  W. Kurlancheek,  A. M. Lee,  M. S. Lee,  
 S. V. Levchenko,  Ching Yeh Lin,  D. Liotard,  R. C. Lochan,  I. Lotan,  
 P. E. Maslen,  N. Nair,  D. P. O'Neill,  D. Neuhauser,  E. Neuscamman,  
 C. M. Oana,  R. Olson,  B. Peters,  R. Peverati,  P. A. Pieniazek,  
 Y. M. Rhee,  J. Ritchie,  M. A. Rohrdanz,  E. Rosta,  N. J. Russ,  
 H. F. Schaefer III,  N. E. Schultz,  N. Shenvi,  A. C. Simmonett,  A. Sodt,  
 D. Stuck,  K. S. Thanthiriwatte,  V. Vanovschi,  Tao Wang,  A. Warshel,  
 C. F. Williams,  Q. Wu,  X. Xu,  W. Zhang

 Please cite Q-Chem as follows:
 Y. Shao et al., Mol. Phys. 113, 184-215 (2015)
 DOI: 10.1080/00268976.2014.952696

 Q-Chem 5.3.0 for Intel X86 EM64T Linux

 Parts of Q-Chem use Armadillo 9.800.1 (Horizon Scraper).
 http://arma.sourceforge.net/

 Q-Chem begins on Sun Jul 12 20:16:01 2020  

Host: centos77-c2
0

     Scratch files written to /tmp/28905.centos77-h1/qchem120571//
Processing $rem in /opt/qchem-5.3.0-intel2020u1//config/preferences:
Processing $rem in /home/shihchengli/.qchemrc:

Checking the input file for inconsistencies... 	...done.

--------------------------------------------------------------
User input:
--------------------------------------------------------------
$rem
   JOBTYPE  sp
   EXCHANGE   omegaB97X-D
   BASIS   6-311+G(2df,2pd)
   UNRESTRICTED   True
   max_scf_cycles   250
   geom_opt_max_cycles   1500
   basis2 6-31G*
   scf_algorithm rca_diis
   SYM_IGNORE  TRUE
   print_input   true
   geom_opt_dmax   80
   pop_mulliken false
   XC_GRID 000075000302
$end

$molecule
0 2
N       -0.0075281638     0.0954854717     -0.0000000000
O       0.0074182955     -1.1393616480     0.0000000000
O       -1.1178707081     0.5241289724     0.0000000000
O       1.1179808581     0.5158191259     0.0000000000
$end
--------------------------------------------------------------
 ----------------------------------------------------------------
             Standard Nuclear Orientation (Angstroms)
    I     Atom           X                Y                Z
 ----------------------------------------------------------------
    1      N      -0.0075281638     0.0954854717     0.0000000000
    2      O       0.0074182955    -1.1393616480     0.0000000000
    3      O      -1.1178707081     0.5241289724     0.0000000000
    4      O       1.1179808581     0.5158191259     0.0000000000
 ----------------------------------------------------------------
 Nuclear Repulsion Energy =         122.56142901 hartrees
 There are       16 alpha and       15 beta electrons
 Requested basis set is 6-311+G(2df,2pd)
 There are 32 shells and 136 basis functions

 Total QAlloc Memory Limit   2000 MB
 Mega-Array Size       188 MB
 MEM_STATIC part       192 MB

                       Distance Matrix (Angstroms)
             N (  1)   O (  2)   O (  3)
   O (  2)  1.234938
   O (  3)  1.190208  2.008352
   O (  4)  1.201437  1.993232  2.235867
 
 A cutoff of  1.0D-09 yielded    516 shell pairs
 There are      9523 function pairs (     12587 Cartesian)
 Smallest overlap matrix eigenvalue = 9.21E-04

 Scale SEOQF with 1.000000e-01/1.000000e-01/1.000000e-01

 Standard Electronic Orientation quadrupole field applied
 Nucleus-field energy     =     0.0000000018 hartrees
 Requested basis set is 6-31G(d)
 There are 16 shells and 56 basis functions
 A cutoff of  1.0D-09 yielded    133 shell pairs
 There are      1681 function pairs (      1935 Cartesian)
 Smallest overlap matrix eigenvalue = 4.14E-03
 Guess from superposition of atomic densities
 Warning:  Energy on first SCF cycle will be non-variational
 SAD guess density has 31.000000 electrons
 Long-range K will be added via erf
 Coulomb attenuation parameter = 0.2 bohr**(-1)
 An unrestricted hybrid HF-DFT SCF calculation will be
 performed using Relaxed Constraint Minimization + Pulay DIIS
 Exchange:     0.2220 Hartree-Fock + 1.0000 wB97X-D + LR-HF
 Correlation:  1.0000 wB97X-D
 Using Euler-Maclaurin-Lebedev (75,302) quadrature formula
 Dispersion:   Grimme D
 SCF converges when DIIS error is below 1.0E-04
 using 6 threads for integral computing
 -------------------------------------------------------
 OpenMP Integral computing Module                
 Release: version 1.0, May 2013, Q-Chem Inc. Pittsburgh 
 -------------------------------------------------------
 using 6 threads for integral computing
 -------------------------------------------------------
 OpenMP Integral computing Module                
 Release: version 1.0, May 2013, Q-Chem Inc. Pittsburgh 
 -------------------------------------------------------
 ---------------------------------------
  Cycle       Energy         DIIS Error
 ---------------------------------------
    1    -281.1684613335      1.20E-01
    2    -279.9092080371      2.57E-02
    3    -279.9938005528      3.53E-03
    4    -280.1012158563      2.81E-03
    5    -280.1023257600      4.35E-04 Done RCA. Switching to DIIS
    6    -280.1039911873      5.39E-04
    7    -280.1042477992      2.72E-04
    8    -280.1044091417      1.87E-04
    9    -280.1044866523      1.17E-04
   10    -280.1045147433      1.45E-05 Convergence criterion met
 ---------------------------------------
 <S^2> = 0.7544
 SCF time:  CPU 16.85 s  wall 4.24 s
 SCF   energy in the small basis set = -280.10451474
 Total energy in the small basis set = -280.10451474
 ----------------------------------------------------
  Cycle       Energy    
 ----------------------------------------------------
    1     -28.4186686798     -2.84E+01
 Long-range K will be added via erf
 Coulomb attenuation parameter = 0.2 bohr**(-1)
 An unrestricted hybrid HF-DFT SCF calculation will be
 performed using Relaxed Constraint Minimization + Pulay DIIS
 Exchange:     0.2220 Hartree-Fock + 1.0000 wB97X-D + LR-HF
 Correlation:  1.0000 wB97X-D
 Using Euler-Maclaurin-Lebedev (75,302) quadrature formula
 Dispersion:   Grimme D
 SCF converges when DIIS error is below 1.0E-05
 Basis2 calculation detected. Using small basis as guess for larger.
 SCFMinFind is unable to tell whether the solution found is close.
 Resetting ReadMinima to 0 and attempting to follow guess.
 SCFMinFind following SCF Guess.
 using 6 threads for integral computing
 -------------------------------------------------------
 OpenMP Integral computing Module                
 Release: version 1.0, May 2013, Q-Chem Inc. Pittsburgh 
 -------------------------------------------------------
 using 6 threads for integral computing
 -------------------------------------------------------
 OpenMP Integral computing Module                
 Release: version 1.0, May 2013, Q-Chem Inc. Pittsburgh 
 -------------------------------------------------------
 ---------------------------------------
  Cycle       Energy         DIIS Error
 ---------------------------------------
    1    -280.1681910992      1.00E-02
    2    -280.1602687501      6.02E-03
    3    -280.1805004203      1.74E-03
    4    -280.2077634406      1.27E-03
    5    -280.2102398419      4.43E-04 Done RCA. Switching to DIIS
    6    -280.2133201233      6.82E-04
    7    -280.2143579218      7.40E-05
    8    -280.2144015797      6.77E-05
    9    -280.2144336320      5.25E-05
   10    -280.2144734519      9.64E-06 Convergence criterion met
 ---------------------------------------
 <S^2> = 0.7557
 SCF time:  CPU 45.71 s  wall 8.31 s
 SCF   energy in the final basis set = -280.21447345
 Total energy in the final basis set = -280.21447345
 
 --------------------------------------------------------------
 
                    Orbital Energies (a.u.)
 --------------------------------------------------------------
 
 Alpha MOs
 -- Occupied --
-19.3999 -19.3653 -19.3617 -14.7854  -1.4946  -1.2829  -1.2351  -0.7882
 -0.7486  -0.7180  -0.7065  -0.5714  -0.4962  -0.4920  -0.4813  -0.4555
 -- Virtual --
 -0.0199   0.0863   0.1377   0.1387   0.1566   0.2226   0.2341   0.2430
  0.2591   0.2596   0.2746   0.3118   0.3230   0.3345   0.3491   0.3574
  0.3785   0.4345   0.4449   0.5260   0.7579   0.7664   0.8904   0.9036
  0.9739   0.9871   1.0147   1.0330   1.0471   1.0533   1.0676   1.1015
  1.1291   1.1575   1.1818   1.3465   1.3556   1.4751   1.5023   1.5416
  1.5859   1.5974   1.6119   1.6247   1.7249   1.9153   1.9663   2.0166
  2.0747   2.2014   2.4093   2.4313   2.4663   2.5390   2.6509   2.7790
  3.6220   3.6440   3.6636   3.7003   3.7759   3.9700   4.0166   4.2587
  4.3254   4.4086   4.4416   4.4852   4.5841   4.5994   4.6200   4.9716
  4.9716   4.9772   4.9932   5.0229   5.0313   5.0437   5.0743   5.0849
  5.1138   5.1220   5.1866   5.1900   5.2748   5.3087   5.3826   5.3967
  5.5727   5.6538   5.8136   5.8527   6.3488   6.3690   6.4450   6.4732
  6.6689   6.7030   6.7571   6.7577   6.7962   6.8400   6.8537   6.9861
  7.1193   7.1671   7.1832   7.2376   7.2846   7.3592   7.4217   7.5286
  7.7625   7.8822   8.0373   8.4226  36.2711  50.0586  50.2387  50.2589
 
 Beta MOs
 -- Occupied --
-19.3826 -19.3594 -19.3573 -14.7862  -1.4820  -1.2712  -1.2023  -0.7681
 -0.7456  -0.6961  -0.6845  -0.4889  -0.4759  -0.4717  -0.4550
 -- Virtual --
 -0.1535  -0.0163   0.0862   0.1373   0.1382   0.1562   0.2231   0.2337
  0.2445   0.2589   0.2592   0.2815   0.3156   0.3227   0.3357   0.3487
  0.3584   0.3868   0.4362   0.4475   0.5371   0.7571   0.7679   0.8953
  0.9133   0.9762   0.9889   1.0370   1.0379   1.0495   1.0547   1.0739
  1.1049   1.1379   1.1800   1.1842   1.3578   1.3668   1.4851   1.5230
  1.5489   1.6097   1.6111   1.6221   1.6333   1.7306   1.9236   1.9691
  2.0322   2.1015   2.2055   2.4130   2.4424   2.4710   2.5437   2.6649
  2.7868   3.6202   3.6452   3.6659   3.7007   3.7780   3.9802   4.0170
  4.2644   4.3353   4.4199   4.4456   4.4852   4.5915   4.6042   4.6201
  4.9925   5.0004   5.0208   5.0314   5.0363   5.0533   5.0652   5.0968
  5.1118   5.1280   5.1353   5.1967   5.2048   5.2986   5.3336   5.4012
  5.4034   5.5862   5.6693   5.8210   5.8622   6.3577   6.4016   6.4655
  6.4785   6.7067   6.7418   6.7778   6.8019   6.8173   6.8574   6.8995
  6.9901   7.1245   7.1817   7.1974   7.2693   7.2910   7.3969   7.4437
  7.5449   7.7698   7.8954   8.0421   8.4308  36.2703  50.0735  50.2446
 50.2649
 --------------------------------------------------------------
 
 -----------------------------------------------------------------
                    Cartesian Multipole Moments
 -----------------------------------------------------------------
    Charge (ESU x 10^10)
                -0.0000
    Dipole Moment (Debye)
         X      -0.0077      Y      -0.2536      Z      -0.0000
       Tot       0.2537
    Quadrupole Moments (Debye-Ang)
        XX     -23.0894     XY       0.0583     YY     -22.1928
        XZ      -0.0000     YZ      -0.0000     ZZ     -19.9470
    Octopole Moments (Debye-Ang^2)
       XXX       0.0286    XXY      -1.4519    XYY       0.0038
       YYY      -0.2833    XXZ      -0.0000    XYZ      -0.0000
       YYZ       0.0000    XZZ      -0.0557    YZZ       0.1611
       ZZZ      -0.0000
    Hexadecapole Moments (Debye-Ang^3)
      XXXX     -96.1772   XXXY       0.3212   XXYY     -28.8055
      XYYY       0.4220   YYYY     -75.5337   XXXZ      -0.0000
      XXYZ       0.0000   XYYZ      -0.0000   YYYZ       0.0000
      XXZZ     -18.5167   XYZZ       0.0840   YYZZ     -15.3531
      XZZZ      -0.0000   YZZZ       0.0000   ZZZZ     -14.8342
 -----------------------------------------------------------------
Archival summary:
1\1\centos77-c2\SP\ProcedureUnspecified\BasisUnspecified\31(2)\shihchen\SunJul1220:16:152020SunJul1220:16:152020\0\\#,ProcedureUnspecified,BasisUnspecified,\\0,2\N\O,1,1.19021\O,1,1.20144,2,138.412\O,1,1.23494,2,111.802,3,-180,0\\\@

 Total job time:  14.36s(wall), 66.15s(cpu) 
 Sun Jul 12 20:16:15 2020

        *************************************************************
        *                                                           *
        *  Thank you very much for using Q-Chem.  Have a nice day.  *
        *                                                           *
        *************************************************************


