                  Welcome to Q-Chem
     A Quantum Leap Into The Future Of Chemistry


 Q-Chem 5.3 (devel), Q-Chem, Inc., Pleasanton, CA (2020)

 Yihan Shao,  Zhengting Gan,  E. Epifanovsky,  A. T. B. Gilbert,  M. Wormit,  
 J. Kussmann,  A. W. Lange,  A. Behn,  Jia Deng,  Xintian Feng,  D. Ghosh,  
 M. Goldey,  P. R. Horn,  L. D. Jacobson,  I. Kaliman,  T. Kus,  A. Landau,  
 Jie Liu,  E. I. Proynov,  R. M. Richard,  R. P. Steele,  E. J. Sundstrom,  
 H. L. Woodcock III,  P. M. Zimmerman,  D. Zuev,  B. Alam,  B. Albrecht,  
 E. Alguire,  S. A. Baeppler,  D. Barton,  Z. Benda,  Y. A. Bernard,  
 E. J. Berquist,  K. B. Bravaya,  H. Burton,  K. Carter-Fenk,  D. Casanova,  
 Chun-Min Chang,  Yunqing Chen,  A. Chien,  K. D. Closser,  M. P. Coons,  
 S. Coriani,  S. Dasgupta,  A. L. Dempwolff,  M. Diedenhofen,  Hainam Do,  
 R. G. Edgar,  Po-Tung Fang,  S. Faraji,  S. Fatehi,  Qingguo Feng,  
 J. Fosso-Tande,  J. Gayvert,  Qinghui Ge,  A. Ghysels,  G. Gidofalvi,  
 J. Gomes,  J. Gonthier,  A. Gunina,  D. Hait,  M. W. D. Hanson-Heine,  
 P. H. P. Harbach,  A. W. Hauser,  M. F. Herbst,  J. E. Herr,  
 E. G. Hohenstein,  Z. C. Holden,  Kerwin Hui,  B. C. Huynh,  T.-C. Jagau,  
 Hyunjun Ji,  B. Kaduk,  K. Khistyaev,  Jaehoon Kim,  P. Klunzinger,  K. Koh,  
 D. Kosenkov,  L. Koulias,  T. Kowalczyk,  C. M. Krauter,  A. Kunitsa,  
 Ka Un Lao,  A. Laurent,  K. V. Lawler,  Joonho Lee,  D. Lefrancois,  
 S. Lehtola,  D. S. Levine,  Yi-Pei Li,  You-Sheng Lin,  Fenglai Liu,  
 Kuan-Yu Liu,  E. Livshits,  M. Loipersberger,  A. Luenser,  P. Manohar,  
 E. Mansoor,  S. F. Manzer,  Shan-Ping Mao,  Yuezhi Mao,  N. Mardirossian,  
 A. V. Marenich,  T. Markovich,  L. A. Martinez-Martinez,  S. A. Maurer,  
 N. J. Mayhall,  S. C. McKenzie,  J.-M. Mewes,  P. Morgante,  A. F. Morrison,  
 J. W. Mullinax,  K. Nanda,  T. S. Nguyen-Beck,  R. Olivares-Amaya,  
 K. J. Oosterbaan,  J. A. Parkhill,  S. K. Paul,  F. Pavosevic,  Zheng Pei,  
 T. M. Perrine,  F. Plasser,  P. Pokhilko,  S. Prager,  A. Prociuk,  
 E. Ramos,  B. Rana,  D. R. Rehn,  F. Rob,  M. Scheurer,  M. Schneider,  
 N. Sergueev,  S. M. Sharada,  S. Sharma,  D. W. Small,  T. Stauch,  
 C. J. Stein,  T. Stein,  Yu-Chuan Su,  S. P. Veccham,  Zhen Tao,  
 A. J. W. Thom,  A. Tkatchenko,  T. Tsuchimochi,  N. M. Tubman,  L. Vogt,  
 M. L. Vidal,  O. Vydrov,  M. A. Watson,  J. Wenzel,  M. de Wergifosse,  
 T. A. Wesolowski,  A. White,  J. Witte,  A. Yamada,  Jun Yang,  K. Yao,  
 S. Yeganeh,  S. R. Yost,  Zhi-Qiang You,  A. Zech,  Igor Ying Zhang,  
 Xing Zhang,  Yan Zhao,  Ying Zhu,  B. R. Brooks,  G. K. L. Chan,  
 C. J. Cramer,  M. S. Gordon,  W. J. Hehre,  A. Klamt,  M. W. Schmidt,  
 C. D. Sherrill,  D. G. Truhlar,  A. Aspuru-Guzik,  R. Baer,  A. T. Bell,  
 N. A. Besley,  Jeng-Da Chai,  A. E. DePrince, III,  R. A. DiStasio Jr.,  
 A. Dreuw,  B. D. Dunietz,  T. R. Furlani,  Chao-Ping Hsu,  Yousung Jung,  
 Jing Kong,  D. S. Lambrecht,  WanZhen Liang,  C. Ochsenfeld,  
 V. A. Rassolov,  L. V. Slipchenko,  J. E. Subotnik,  T. Van Voorhis,  
 J. M. Herbert,  A. I. Krylov,  P. M. W. Gill,  M. Head-Gordon

 Contributors to earlier versions of Q-Chem not listed above: 
 R. D. Adamson,  B. Austin,  J. Baker,  G. J. O. Beran,  K. Brandhorst,  
 S. T. Brown,  E. F. C. Byrd,  A. K. Chakraborty,  C.-L. Cheng,  
 Siu Hung Chien,  D. M. Chipman,  D. L. Crittenden,  H. Dachsel,  
 R. J. Doerksen,  A. D. Dutoi,  L. Fusti-Molnar,  W. A. Goddard III,  
 A. Golubeva-Zadorozhnaya,  S. R. Gwaltney,  G. Hawkins,  A. Heyden,  
 S. Hirata,  G. Kedziora,  F. J. Keil,  C. Kelley,  Jihan Kim,  R. A. King,  
 R. Z. Khaliullin,  P. P. Korambath,  W. Kurlancheek,  A. M. Lee,  M. S. Lee,  
 S. V. Levchenko,  Ching Yeh Lin,  D. Liotard,  R. C. Lochan,  I. Lotan,  
 P. E. Maslen,  N. Nair,  D. P. O'Neill,  D. Neuhauser,  E. Neuscamman,  
 C. M. Oana,  R. Olson,  B. Peters,  R. Peverati,  P. A. Pieniazek,  
 Y. M. Rhee,  J. Ritchie,  M. A. Rohrdanz,  E. Rosta,  N. J. Russ,  
 H. F. Schaefer III,  N. E. Schultz,  N. Shenvi,  A. C. Simmonett,  A. Sodt,  
 D. Stuck,  K. S. Thanthiriwatte,  V. Vanovschi,  Tao Wang,  A. Warshel,  
 C. F. Williams,  Q. Wu,  X. Xu,  W. Zhang

 Please cite Q-Chem as follows:
 Y. Shao et al., Mol. Phys. 113, 184-215 (2015)
 DOI: 10.1080/00268976.2014.952696

 Q-Chem 5.3.0 for Intel X86 EM64T Linux

 Parts of Q-Chem use Armadillo 9.800.1 (Horizon Scraper).
 http://arma.sourceforge.net/

 Q-Chem begins on Sun Jul 12 20:14:36 2020  

Host: centos77-c2
0

     Scratch files written to /tmp/28905.centos77-h1/qchem120167//
Processing $rem in /opt/qchem-5.3.0-intel2020u1//config/preferences:
Processing $rem in /home/shihchengli/.qchemrc:

Checking the input file for inconsistencies... 	...done.

--------------------------------------------------------------
User input:
--------------------------------------------------------------
$rem
   JOBTYPE  sp
   EXCHANGE   omegaB97X-D
   BASIS   6-311+G(2df,2pd)
   UNRESTRICTED   True
   max_scf_cycles   250
   geom_opt_max_cycles   1500
   basis2 6-31G*
   scf_algorithm rca_diis
   SYM_IGNORE  TRUE
   print_input   true
   geom_opt_dmax   80
   pop_mulliken false
   XC_GRID 000075000302
$end

$molecule
0 2
N       0.0036363415     -0.1215168468     0.0000000000
O       -0.0024474892     -1.2945935942     -0.0000000000
O       -0.9556441477     0.7051013028     -0.0000000000
O       0.9544555772     0.7070810602     -0.0000000000
$end
--------------------------------------------------------------
 ----------------------------------------------------------------
             Standard Nuclear Orientation (Angstroms)
    I     Atom           X                Y                Z
 ----------------------------------------------------------------
    1      N       0.0036363415    -0.1215168468     0.0000000000
    2      O      -0.0024474892    -1.2945935942     0.0000000000
    3      O      -0.9556441477     0.7051013028     0.0000000000
    4      O       0.9544555772     0.7070810602     0.0000000000
 ----------------------------------------------------------------
 Nuclear Repulsion Energy =         120.44359790 hartrees
 There are       16 alpha and       15 beta electrons
 Requested basis set is 6-311+G(2df,2pd)
 There are 32 shells and 136 basis functions

 Total QAlloc Memory Limit   2000 MB
 Mega-Array Size       188 MB
 MEM_STATIC part       192 MB

                       Distance Matrix (Angstroms)
             N (  1)   O (  2)   O (  3)
   O (  2)  1.173093
   O (  3)  1.266300  2.215257
   O (  4)  1.261202  2.218640  1.910101
 
 A cutoff of  1.0D-09 yielded    515 shell pairs
 There are      9505 function pairs (     12567 Cartesian)
 Smallest overlap matrix eigenvalue = 9.85E-04

 Scale SEOQF with 1.000000e-01/1.000000e-01/1.000000e-01

 Standard Electronic Orientation quadrupole field applied
 Nucleus-field energy     =     0.0000000021 hartrees
 Requested basis set is 6-31G(d)
 There are 16 shells and 56 basis functions
 A cutoff of  1.0D-09 yielded    133 shell pairs
 There are      1681 function pairs (      1935 Cartesian)
 Smallest overlap matrix eigenvalue = 4.98E-03
 Guess from superposition of atomic densities
 Warning:  Energy on first SCF cycle will be non-variational
 SAD guess density has 31.000000 electrons
 Long-range K will be added via erf
 Coulomb attenuation parameter = 0.2 bohr**(-1)
 An unrestricted hybrid HF-DFT SCF calculation will be
 performed using Relaxed Constraint Minimization + Pulay DIIS
 Exchange:     0.2220 Hartree-Fock + 1.0000 wB97X-D + LR-HF
 Correlation:  1.0000 wB97X-D
 Using Euler-Maclaurin-Lebedev (75,302) quadrature formula
 Dispersion:   Grimme D
 SCF converges when DIIS error is below 1.0E-04
 using 6 threads for integral computing
 -------------------------------------------------------
 OpenMP Integral computing Module                
 Release: version 1.0, May 2013, Q-Chem Inc. Pittsburgh 
 -------------------------------------------------------
 using 6 threads for integral computing
 -------------------------------------------------------
 OpenMP Integral computing Module                
 Release: version 1.0, May 2013, Q-Chem Inc. Pittsburgh 
 -------------------------------------------------------
 ---------------------------------------
  Cycle       Energy         DIIS Error
 ---------------------------------------
    1    -281.0062750955      1.14E-01
    2    -279.9003529364      2.66E-02
    3    -279.9887667921      4.42E-03
    4    -280.1048518800      4.36E-03
    5    -280.1072851263      5.83E-04 Done RCA. Switching to DIIS
    6    -280.1103524251      5.11E-04
    7    -280.1104602108      8.36E-05 Convergence criterion met
 ---------------------------------------
 <S^2> = 0.7556
 SCF time:  CPU 13.07 s  wall 2.81 s
 SCF   energy in the small basis set = -280.11046021
 Total energy in the small basis set = -280.11046021
 ----------------------------------------------------
  Cycle       Energy    
 ----------------------------------------------------
    1     -28.3667503224     -2.84E+01
 Long-range K will be added via erf
 Coulomb attenuation parameter = 0.2 bohr**(-1)
 An unrestricted hybrid HF-DFT SCF calculation will be
 performed using Relaxed Constraint Minimization + Pulay DIIS
 Exchange:     0.2220 Hartree-Fock + 1.0000 wB97X-D + LR-HF
 Correlation:  1.0000 wB97X-D
 Using Euler-Maclaurin-Lebedev (75,302) quadrature formula
 Dispersion:   Grimme D
 SCF converges when DIIS error is below 1.0E-05
 Basis2 calculation detected. Using small basis as guess for larger.
 SCFMinFind is unable to tell whether the solution found is close.
 Resetting ReadMinima to 0 and attempting to follow guess.
 SCFMinFind following SCF Guess.
 using 6 threads for integral computing
 -------------------------------------------------------
 OpenMP Integral computing Module                
 Release: version 1.0, May 2013, Q-Chem Inc. Pittsburgh 
 -------------------------------------------------------
 using 6 threads for integral computing
 -------------------------------------------------------
 OpenMP Integral computing Module                
 Release: version 1.0, May 2013, Q-Chem Inc. Pittsburgh 
 -------------------------------------------------------
 ---------------------------------------
  Cycle       Energy         DIIS Error
 ---------------------------------------
    1    -280.1807606037      9.86E-03
    2    -280.1953136201      4.19E-03
    3    -280.2051772404      8.19E-04 Done RCA. Switching to DIIS
    4    -280.2180262841      6.76E-04
    5    -280.2186925857      2.01E-04
    6    -280.2188015836      5.91E-05
    7    -280.2188544175      4.48E-05
    8    -280.2188692799      1.82E-05
    9    -280.2188817970      6.33E-06 Convergence criterion met
 ---------------------------------------
 <S^2> = 0.7576
 SCF time:  CPU 37.46 s  wall 6.94 s
 SCF   energy in the final basis set = -280.21888180
 Total energy in the final basis set = -280.21888180
 
 --------------------------------------------------------------
 
                    Orbital Energies (a.u.)
 --------------------------------------------------------------
 
 Alpha MOs
 -- Occupied --
-19.3838 -19.3833 -19.3656 -14.7848  -1.4712  -1.2898  -1.1984  -0.7915
 -0.7341  -0.7087  -0.7049  -0.5679  -0.4912  -0.4891  -0.4760  -0.4537
 -- Virtual --
 -0.0302   0.0839   0.1366   0.1384   0.1574   0.2130   0.2189   0.2426
  0.2551   0.2583   0.2617   0.3101   0.3203   0.3250   0.3465   0.3519
  0.3565   0.4352   0.4446   0.5117   0.7594   0.7707   0.8546   0.9300
  0.9611   0.9982   1.0301   1.0441   1.0472   1.0523   1.0823   1.1055
  1.1131   1.1657   1.1792   1.2989   1.3623   1.4636   1.5246   1.5513
  1.5631   1.5835   1.6353   1.6665   1.7544   1.7627   1.9412   1.9516
  2.1670   2.1853   2.3662   2.4228   2.4581   2.5133   2.6814   2.7392
  3.6163   3.6319   3.6374   3.7063   3.7578   3.9265   3.9797   4.1711
  4.3604   4.3727   4.4066   4.5300   4.5359   4.6344   4.6718   4.9705
  4.9796   4.9873   5.0085   5.0172   5.0258   5.0307   5.0825   5.0910
  5.1057   5.1395   5.1576   5.1630   5.2682   5.2911   5.3997   5.4539
  5.4769   5.5570   5.6800   5.7529   6.0470   6.1289   6.4939   6.5316
  6.6648   6.6865   6.7426   6.7649   6.7906   6.8280   6.8880   6.8896
  7.0317   7.1344   7.1658   7.2266   7.2323   7.2362   7.5338   7.6123
  7.8168   7.8695   8.0544   8.1335  36.1542  50.0044  50.1651  50.2653
 
 Beta MOs
 -- Occupied --
-19.3696 -19.3695 -19.3659 -14.7856  -1.4599  -1.2764  -1.1634  -0.7732
 -0.7318  -0.6902  -0.6850  -0.4848  -0.4792  -0.4740  -0.4550
 -- Virtual --
 -0.1327  -0.0274   0.0849   0.1382   0.1398   0.1575   0.2161   0.2235
  0.2450   0.2579   0.2602   0.2625   0.3177   0.3200   0.3263   0.3463
  0.3527   0.3586   0.4395   0.4465   0.5221   0.7589   0.7725   0.8576
  0.9379   0.9626   1.0018   1.0345   1.0511   1.0542   1.0704   1.0893
  1.1069   1.1153   1.1816   1.1940   1.3110   1.3687   1.4789   1.5277
  1.5665   1.5694   1.6023   1.6478   1.6907   1.7603   1.7704   1.9504
  1.9542   2.1885   2.1910   2.3695   2.4343   2.4708   2.5160   2.6928
  2.7465   3.6171   3.6310   3.6383   3.7070   3.7604   3.9347   3.9807
  4.1764   4.3679   4.3814   4.4139   4.5296   4.5415   4.6350   4.6817
  4.9913   4.9995   5.0256   5.0334   5.0442   5.0556   5.0556   5.0969
  5.1073   5.1237   5.1577   5.1636   5.1794   5.2925   5.3273   5.4033
  5.4735   5.4941   5.5682   5.6888   5.7613   6.0613   6.1367   6.5232
  6.5399   6.7137   6.7376   6.7526   6.7957   6.8117   6.8702   6.8914
  6.9023   7.0464   7.1427   7.1797   7.2388   7.2578   7.2650   7.5532
  7.6454   7.8200   7.8847   8.0667   8.1393  36.1534  50.0179  50.1786
 50.2651
 --------------------------------------------------------------
 
 -----------------------------------------------------------------
                    Cartesian Multipole Moments
 -----------------------------------------------------------------
    Charge (ESU x 10^10)
                -0.0000
    Dipole Moment (Debye)
         X       0.0008      Y      -0.1945      Z      -0.0000
       Tot       0.1945
    Quadrupole Moments (Debye-Ang)
        XX     -22.0390     XY      -0.0019     YY     -23.1046
        XZ       0.0000     YZ      -0.0000     ZZ     -20.0537
    Octopole Moments (Debye-Ang^2)
       XXX      -0.0354    XXY      -0.6759    XYY      -0.0018
       YYY       1.4315    XXZ       0.0000    XYZ       0.0000
       YYZ      -0.0000    XZZ       0.0154    YZZ      -0.5158
       ZZZ      -0.0000
    Hexadecapole Moments (Debye-Ang^3)
      XXXX     -73.7231   XXXY      -0.0611   XXYY     -29.5786
      XYYY      -0.0238   YYYY    -101.7881   XXXZ       0.0000
      XXYZ       0.0000   XYYZ       0.0000   YYYZ       0.0000
      XXZZ     -15.3084   XYZZ      -0.0074   YYZZ     -19.4110
      XZZZ       0.0000   YZZZ      -0.0000   ZZZZ     -14.9780
 -----------------------------------------------------------------
Archival summary:
1\1\centos77-c2\SP\ProcedureUnspecified\BasisUnspecified\31(2)\shihchen\SunJul1220:14:472020SunJul1220:14:472020\0\\#,ProcedureUnspecified,BasisUnspecified,\\0,2\N\O,1,1.17309\O,1,1.2612,2,131.368\O,1,1.2663,2,130.455,3,-180,0\\\@

 Total job time:  10.94s(wall), 53.80s(cpu) 
 Sun Jul 12 20:14:47 2020

        *************************************************************
        *                                                           *
        *  Thank you very much for using Q-Chem.  Have a nice day.  *
        *                                                           *
        *************************************************************


