                  Welcome to Q-Chem
     A Quantum Leap Into The Future Of Chemistry


 Q-Chem 5.3 (devel), Q-Chem, Inc., Pleasanton, CA (2020)

 Yihan Shao,  Zhengting Gan,  E. Epifanovsky,  A. T. B. Gilbert,  M. Wormit,  
 J. Kussmann,  A. W. Lange,  A. Behn,  Jia Deng,  Xintian Feng,  D. Ghosh,  
 M. Goldey,  P. R. Horn,  L. D. Jacobson,  I. Kaliman,  T. Kus,  A. Landau,  
 Jie Liu,  E. I. Proynov,  R. M. Richard,  R. P. Steele,  E. J. Sundstrom,  
 H. L. Woodcock III,  P. M. Zimmerman,  D. Zuev,  B. Alam,  B. Albrecht,  
 E. Alguire,  S. A. Baeppler,  D. Barton,  Z. Benda,  Y. A. Bernard,  
 E. J. Berquist,  K. B. Bravaya,  H. Burton,  K. Carter-Fenk,  D. Casanova,  
 Chun-Min Chang,  Yunqing Chen,  A. Chien,  K. D. Closser,  M. P. Coons,  
 S. Coriani,  S. Dasgupta,  A. L. Dempwolff,  M. Diedenhofen,  Hainam Do,  
 R. G. Edgar,  Po-Tung Fang,  S. Faraji,  S. Fatehi,  Qingguo Feng,  
 J. Fosso-Tande,  J. Gayvert,  Qinghui Ge,  A. Ghysels,  G. Gidofalvi,  
 J. Gomes,  J. Gonthier,  A. Gunina,  D. Hait,  M. W. D. Hanson-Heine,  
 P. H. P. Harbach,  A. W. Hauser,  M. F. Herbst,  J. E. Herr,  
 E. G. Hohenstein,  Z. C. Holden,  Kerwin Hui,  B. C. Huynh,  T.-C. Jagau,  
 Hyunjun Ji,  B. Kaduk,  K. Khistyaev,  Jaehoon Kim,  P. Klunzinger,  K. Koh,  
 D. Kosenkov,  L. Koulias,  T. Kowalczyk,  C. M. Krauter,  A. Kunitsa,  
 Ka Un Lao,  A. Laurent,  K. V. Lawler,  Joonho Lee,  D. Lefrancois,  
 S. Lehtola,  D. S. Levine,  Yi-Pei Li,  You-Sheng Lin,  Fenglai Liu,  
 Kuan-Yu Liu,  E. Livshits,  M. Loipersberger,  A. Luenser,  P. Manohar,  
 E. Mansoor,  S. F. Manzer,  Shan-Ping Mao,  Yuezhi Mao,  N. Mardirossian,  
 A. V. Marenich,  T. Markovich,  L. A. Martinez-Martinez,  S. A. Maurer,  
 N. J. Mayhall,  S. C. McKenzie,  J.-M. Mewes,  P. Morgante,  A. F. Morrison,  
 J. W. Mullinax,  K. Nanda,  T. S. Nguyen-Beck,  R. Olivares-Amaya,  
 K. J. Oosterbaan,  J. A. Parkhill,  S. K. Paul,  F. Pavosevic,  Zheng Pei,  
 T. M. Perrine,  F. Plasser,  P. Pokhilko,  S. Prager,  A. Prociuk,  
 E. Ramos,  B. Rana,  D. R. Rehn,  F. Rob,  M. Scheurer,  M. Schneider,  
 N. Sergueev,  S. M. Sharada,  S. Sharma,  D. W. Small,  T. Stauch,  
 C. J. Stein,  T. Stein,  Yu-Chuan Su,  S. P. Veccham,  Zhen Tao,  
 A. J. W. Thom,  A. Tkatchenko,  T. Tsuchimochi,  N. M. Tubman,  L. Vogt,  
 M. L. Vidal,  O. Vydrov,  M. A. Watson,  J. Wenzel,  M. de Wergifosse,  
 T. A. Wesolowski,  A. White,  J. Witte,  A. Yamada,  Jun Yang,  K. Yao,  
 S. Yeganeh,  S. R. Yost,  Zhi-Qiang You,  A. Zech,  Igor Ying Zhang,  
 Xing Zhang,  Yan Zhao,  Ying Zhu,  B. R. Brooks,  G. K. L. Chan,  
 C. J. Cramer,  M. S. Gordon,  W. J. Hehre,  A. Klamt,  M. W. Schmidt,  
 C. D. Sherrill,  D. G. Truhlar,  A. Aspuru-Guzik,  R. Baer,  A. T. Bell,  
 N. A. Besley,  Jeng-Da Chai,  A. E. DePrince, III,  R. A. DiStasio Jr.,  
 A. Dreuw,  B. D. Dunietz,  T. R. Furlani,  Chao-Ping Hsu,  Yousung Jung,  
 Jing Kong,  D. S. Lambrecht,  WanZhen Liang,  C. Ochsenfeld,  
 V. A. Rassolov,  L. V. Slipchenko,  J. E. Subotnik,  T. Van Voorhis,  
 J. M. Herbert,  A. I. Krylov,  P. M. W. Gill,  M. Head-Gordon

 Contributors to earlier versions of Q-Chem not listed above: 
 R. D. Adamson,  B. Austin,  J. Baker,  G. J. O. Beran,  K. Brandhorst,  
 S. T. Brown,  E. F. C. Byrd,  A. K. Chakraborty,  C.-L. Cheng,  
 Siu Hung Chien,  D. M. Chipman,  D. L. Crittenden,  H. Dachsel,  
 R. J. Doerksen,  A. D. Dutoi,  L. Fusti-Molnar,  W. A. Goddard III,  
 A. Golubeva-Zadorozhnaya,  S. R. Gwaltney,  G. Hawkins,  A. Heyden,  
 S. Hirata,  G. Kedziora,  F. J. Keil,  C. Kelley,  Jihan Kim,  R. A. King,  
 R. Z. Khaliullin,  P. P. Korambath,  W. Kurlancheek,  A. M. Lee,  M. S. Lee,  
 S. V. Levchenko,  Ching Yeh Lin,  D. Liotard,  R. C. Lochan,  I. Lotan,  
 P. E. Maslen,  N. Nair,  D. P. O'Neill,  D. Neuhauser,  E. Neuscamman,  
 C. M. Oana,  R. Olson,  B. Peters,  R. Peverati,  P. A. Pieniazek,  
 Y. M. Rhee,  J. Ritchie,  M. A. Rohrdanz,  E. Rosta,  N. J. Russ,  
 H. F. Schaefer III,  N. E. Schultz,  N. Shenvi,  A. C. Simmonett,  A. Sodt,  
 D. Stuck,  K. S. Thanthiriwatte,  V. Vanovschi,  Tao Wang,  A. Warshel,  
 C. F. Williams,  Q. Wu,  X. Xu,  W. Zhang

 Please cite Q-Chem as follows:
 Y. Shao et al., Mol. Phys. 113, 184-215 (2015)
 DOI: 10.1080/00268976.2014.952696

 Q-Chem 5.3.0 for Intel X86 EM64T Linux

 Parts of Q-Chem use Armadillo 9.800.1 (Horizon Scraper).
 http://arma.sourceforge.net/

 Q-Chem begins on Sun Jul 12 20:17:22 2020  

Host: centos77-c2
0

     Scratch files written to /tmp/28905.centos77-h1/qchem120877//
Processing $rem in /opt/qchem-5.3.0-intel2020u1//config/preferences:
Processing $rem in /home/shihchengli/.qchemrc:

Checking the input file for inconsistencies... 	...done.

--------------------------------------------------------------
User input:
--------------------------------------------------------------
$rem
   JOBTYPE  sp
   EXCHANGE   omegaB97X-D
   BASIS   6-311+G(2df,2pd)
   UNRESTRICTED   True
   max_scf_cycles   250
   geom_opt_max_cycles   1500
   basis2 6-31G*
   scf_algorithm rca_diis
   SYM_IGNORE  TRUE
   print_input   true
   geom_opt_dmax   80
   pop_mulliken false
   XC_GRID 000075000302
$end

$molecule
0 2
N       -0.1041385459     -0.0539215791     0.0000000000
O       0.0824936829     -1.2323690672     -0.0000000000
O       -1.0136553802     0.6819406030     -0.0000000000
O       1.0353005249     0.6004219653     -0.0000000000
$end
--------------------------------------------------------------
 ----------------------------------------------------------------
             Standard Nuclear Orientation (Angstroms)
    I     Atom           X                Y                Z
 ----------------------------------------------------------------
    1      N      -0.1041385459    -0.0539215791     0.0000000000
    2      O       0.0824936829    -1.2323690672     0.0000000000
    3      O      -1.0136553802     0.6819406030     0.0000000000
    4      O       1.0353005249     0.6004219653     0.0000000000
 ----------------------------------------------------------------
 Nuclear Repulsion Energy =         120.98423308 hartrees
 There are       16 alpha and       15 beta electrons
 Requested basis set is 6-311+G(2df,2pd)
 There are 32 shells and 136 basis functions

 Total QAlloc Memory Limit   2000 MB
 Mega-Array Size       188 MB
 MEM_STATIC part       192 MB

                       Distance Matrix (Angstroms)
             N (  1)   O (  2)   O (  3)
   O (  2)  1.193135
   O (  3)  1.169921  2.205929
   O (  4)  1.313958  2.065663  2.050577
 
 A cutoff of  1.0D-09 yielded    512 shell pairs
 There are      9503 function pairs (     12563 Cartesian)
 Smallest overlap matrix eigenvalue = 8.87E-04

 Scale SEOQF with 1.000000e-01/1.000000e-01/1.000000e-01

 Standard Electronic Orientation quadrupole field applied
 Nucleus-field energy     =     0.0000000019 hartrees
 Requested basis set is 6-31G(d)
 There are 16 shells and 56 basis functions
 A cutoff of  1.0D-09 yielded    133 shell pairs
 There are      1681 function pairs (      1935 Cartesian)
 Smallest overlap matrix eigenvalue = 4.19E-03
 Guess from superposition of atomic densities
 Warning:  Energy on first SCF cycle will be non-variational
 SAD guess density has 31.000000 electrons
 Long-range K will be added via erf
 Coulomb attenuation parameter = 0.2 bohr**(-1)
 An unrestricted hybrid HF-DFT SCF calculation will be
 performed using Relaxed Constraint Minimization + Pulay DIIS
 Exchange:     0.2220 Hartree-Fock + 1.0000 wB97X-D + LR-HF
 Correlation:  1.0000 wB97X-D
 Using Euler-Maclaurin-Lebedev (75,302) quadrature formula
 Dispersion:   Grimme D
 SCF converges when DIIS error is below 1.0E-04
 using 6 threads for integral computing
 -------------------------------------------------------
 OpenMP Integral computing Module                
 Release: version 1.0, May 2013, Q-Chem Inc. Pittsburgh 
 -------------------------------------------------------
 using 6 threads for integral computing
 -------------------------------------------------------
 OpenMP Integral computing Module                
 Release: version 1.0, May 2013, Q-Chem Inc. Pittsburgh 
 -------------------------------------------------------
 ---------------------------------------
  Cycle       Energy         DIIS Error
 ---------------------------------------
    1    -281.0631668943      1.17E-01
    2    -279.9050101804      2.59E-02
    3    -279.9912807807      3.76E-03
    4    -280.1035037906      3.03E-03
    5    -280.1050181358      7.48E-04 Done RCA. Switching to DIIS
    6    -280.1074778616      6.29E-04
    7    -280.1080961883      3.87E-04
    8    -280.1085301407      1.45E-04
    9    -280.1085837350      1.24E-04
   10    -280.1086028803      1.15E-05 Convergence criterion met
 ---------------------------------------
 <S^2> = 0.7541
 SCF time:  CPU 11.68 s  wall 2.11 s
 SCF   energy in the small basis set = -280.10860288
 Total energy in the small basis set = -280.10860288
 ----------------------------------------------------
  Cycle       Energy    
 ----------------------------------------------------
    1     -28.3937857498     -2.84E+01
 Long-range K will be added via erf
 Coulomb attenuation parameter = 0.2 bohr**(-1)
 An unrestricted hybrid HF-DFT SCF calculation will be
 performed using Relaxed Constraint Minimization + Pulay DIIS
 Exchange:     0.2220 Hartree-Fock + 1.0000 wB97X-D + LR-HF
 Correlation:  1.0000 wB97X-D
 Using Euler-Maclaurin-Lebedev (75,302) quadrature formula
 Dispersion:   Grimme D
 SCF converges when DIIS error is below 1.0E-05
 Basis2 calculation detected. Using small basis as guess for larger.
 SCFMinFind is unable to tell whether the solution found is close.
 Resetting ReadMinima to 0 and attempting to follow guess.
 SCFMinFind following SCF Guess.
 using 6 threads for integral computing
 -------------------------------------------------------
 OpenMP Integral computing Module                
 Release: version 1.0, May 2013, Q-Chem Inc. Pittsburgh 
 -------------------------------------------------------
 using 6 threads for integral computing
 -------------------------------------------------------
 OpenMP Integral computing Module                
 Release: version 1.0, May 2013, Q-Chem Inc. Pittsburgh 
 -------------------------------------------------------
 ---------------------------------------
  Cycle       Energy         DIIS Error
 ---------------------------------------
    1    -280.1636832541      1.02E-02
    2    -280.1439588536      6.95E-03
    3    -280.1706993389      2.10E-03
    4    -280.2075297215      1.33E-03
    5    -280.2118352115      8.47E-04 Done RCA. Switching to DIIS
    6    -280.2148194757      1.33E-03
    7    -280.2181315894      1.61E-04
    8    -280.2183973469      6.24E-05
    9    -280.2185101336      3.91E-05
   10    -280.2185281912      8.16E-06 Convergence criterion met
 ---------------------------------------
 <S^2> = 0.7553
 SCF time:  CPU 42.36 s  wall 7.85 s
 SCF   energy in the final basis set = -280.21852819
 Total energy in the final basis set = -280.21852819
 
 --------------------------------------------------------------
 
                    Orbital Energies (a.u.)
 --------------------------------------------------------------
 
 Alpha MOs
 -- Occupied --
-19.4027 -19.3639 -19.3604 -14.7831  -1.4774  -1.2859  -1.2176  -0.7880
 -0.7393  -0.7187  -0.6979  -0.5744  -0.4935  -0.4890  -0.4798  -0.4580
 -- Virtual --
 -0.0200   0.0857   0.1374   0.1391   0.1573   0.1968   0.2344   0.2445
  0.2536   0.2585   0.2596   0.3075   0.3243   0.3318   0.3489   0.3523
  0.3708   0.4336   0.4445   0.5455   0.7594   0.7679   0.8795   0.9036
  0.9503   0.9905   1.0201   1.0503   1.0533   1.0539   1.0751   1.1048
  1.1300   1.1618   1.1817   1.3474   1.3631   1.4752   1.4823   1.5425
  1.5656   1.5959   1.6000   1.6398   1.7253   1.9040   1.9608   1.9959
  2.0086   2.1843   2.3618   2.4038   2.4839   2.5374   2.6531   2.7993
  3.6237   3.6359   3.6809   3.6958   3.7011   3.9264   4.0397   4.1493
  4.3273   4.4348   4.4459   4.4485   4.5981   4.6339   4.6851   4.9707
  4.9710   4.9754   4.9884   5.0244   5.0298   5.0353   5.0657   5.0847
  5.0939   5.1132   5.1424   5.2031   5.2577   5.3469   5.3906   5.4130
  5.5981   5.6001   5.7099   5.8407   6.0936   6.2131   6.4092   6.5124
  6.6823   6.7039   6.7471   6.7658   6.7931   6.8306   6.8512   7.0547
  7.1185   7.1453   7.1509   7.2271   7.2898   7.2970   7.3492   7.4747
  7.7449   7.8713   7.9875   8.4741  36.2078  49.9797  50.2414  50.2867
 
 Beta MOs
 -- Occupied --
-19.3833 -19.3604 -19.3564 -14.7839  -1.4680  -1.2775  -1.1750  -0.7687
 -0.7371  -0.6986  -0.6823  -0.4839  -0.4768  -0.4693  -0.4582
 -- Virtual --
 -0.1484  -0.0174   0.0861   0.1377   0.1389   0.1571   0.2043   0.2343
  0.2471   0.2584   0.2592   0.2605   0.3092   0.3241   0.3335   0.3485
  0.3527   0.3744   0.4351   0.4483   0.5544   0.7589   0.7690   0.8909
  0.9079   0.9525   0.9926   1.0432   1.0512   1.0563   1.0587   1.0820
  1.1086   1.1361   1.1838   1.1854   1.3567   1.3734   1.4928   1.5023
  1.5480   1.5938   1.6019   1.6165   1.6461   1.7298   1.9124   1.9639
  2.0096   2.0375   2.1879   2.3765   2.4072   2.4868   2.5428   2.6651
  2.8054   3.6225   3.6379   3.6829   3.6971   3.7013   3.9359   4.0399
  4.1561   4.3326   4.4436   4.4460   4.4530   4.6069   4.6402   4.6845
  4.9888   4.9979   5.0301   5.0313   5.0337   5.0522   5.0626   5.0932
  5.1033   5.1151   5.1286   5.1610   5.2162   5.2777   5.3688   5.4083
  5.4182   5.6116   5.6147   5.7168   5.8473   6.1035   6.2483   6.4263
  6.5169   6.7282   6.7463   6.7818   6.7915   6.8077   6.8431   6.9019
  7.0575   7.1242   7.1604   7.1866   7.2378   7.2947   7.3183   7.3908
  7.4877   7.7503   7.8808   7.9955   8.4797  36.2070  49.9999  50.2458
 50.2900
 --------------------------------------------------------------
 
 -----------------------------------------------------------------
                    Cartesian Multipole Moments
 -----------------------------------------------------------------
    Charge (ESU x 10^10)
                -0.0000
    Dipole Moment (Debye)
         X       0.1341      Y       0.1979      Z      -0.0000
       Tot       0.2391
    Quadrupole Moments (Debye-Ang)
        XX     -22.4131     XY       0.3022     YY     -22.8432
        XZ       0.0000     YZ       0.0000     ZZ     -20.0259
    Octopole Moments (Debye-Ang^2)
       XXX       0.9247    XXY      -0.7907    XYY       0.3177
       YYY       1.9515    XXZ       0.0000    XYZ      -0.0000
       YYZ       0.0000    XZZ      -0.4546    YZZ      -0.1172
       ZZZ       0.0000
    Hexadecapole Moments (Debye-Ang^3)
      XXXX     -84.0576   XXXY       2.5455   XXYY     -29.2875
      XYYY       2.5656   YYYY     -91.4207   XXXZ       0.0000
      XXYZ       0.0000   XYYZ      -0.0000   YYYZ       0.0000
      XXZZ     -16.7892   XYZZ       0.5932   YYZZ     -17.7804
      XZZZ       0.0000   YZZZ      -0.0000   ZZZZ     -14.9728
 -----------------------------------------------------------------
Archival summary:
1\1\centos77-c2\SP\ProcedureUnspecified\BasisUnspecified\31(2)\shihchen\SunJul1220:17:342020SunJul1220:17:342020\0\\#,ProcedureUnspecified,BasisUnspecified,\\0,2\N\O,1,1.16992\O,1,1.19313,2,137.975\O,1,1.31396,2,111.157,3,-180,0\\\@

 Total job time:  12.04s(wall), 58.01s(cpu) 
 Sun Jul 12 20:17:34 2020

        *************************************************************
        *                                                           *
        *  Thank you very much for using Q-Chem.  Have a nice day.  *
        *                                                           *
        *************************************************************


