                  Welcome to Q-Chem
     A Quantum Leap Into The Future Of Chemistry


 Q-Chem 5.3 (devel), Q-Chem, Inc., Pleasanton, CA (2020)

 Yihan Shao,  Zhengting Gan,  E. Epifanovsky,  A. T. B. Gilbert,  M. Wormit,  
 J. Kussmann,  A. W. Lange,  A. Behn,  Jia Deng,  Xintian Feng,  D. Ghosh,  
 M. Goldey,  P. R. Horn,  L. D. Jacobson,  I. Kaliman,  T. Kus,  A. Landau,  
 Jie Liu,  E. I. Proynov,  R. M. Richard,  R. P. Steele,  E. J. Sundstrom,  
 H. L. Woodcock III,  P. M. Zimmerman,  D. Zuev,  B. Alam,  B. Albrecht,  
 E. Alguire,  S. A. Baeppler,  D. Barton,  Z. Benda,  Y. A. Bernard,  
 E. J. Berquist,  K. B. Bravaya,  H. Burton,  K. Carter-Fenk,  D. Casanova,  
 Chun-Min Chang,  Yunqing Chen,  A. Chien,  K. D. Closser,  M. P. Coons,  
 S. Coriani,  S. Dasgupta,  A. L. Dempwolff,  M. Diedenhofen,  Hainam Do,  
 R. G. Edgar,  Po-Tung Fang,  S. Faraji,  S. Fatehi,  Qingguo Feng,  
 J. Fosso-Tande,  J. Gayvert,  Qinghui Ge,  A. Ghysels,  G. Gidofalvi,  
 J. Gomes,  J. Gonthier,  A. Gunina,  D. Hait,  M. W. D. Hanson-Heine,  
 P. H. P. Harbach,  A. W. Hauser,  M. F. Herbst,  J. E. Herr,  
 E. G. Hohenstein,  Z. C. Holden,  Kerwin Hui,  B. C. Huynh,  T.-C. Jagau,  
 Hyunjun Ji,  B. Kaduk,  K. Khistyaev,  Jaehoon Kim,  P. Klunzinger,  K. Koh,  
 D. Kosenkov,  L. Koulias,  T. Kowalczyk,  C. M. Krauter,  A. Kunitsa,  
 Ka Un Lao,  A. Laurent,  K. V. Lawler,  Joonho Lee,  D. Lefrancois,  
 S. Lehtola,  D. S. Levine,  Yi-Pei Li,  You-Sheng Lin,  Fenglai Liu,  
 Kuan-Yu Liu,  E. Livshits,  M. Loipersberger,  A. Luenser,  P. Manohar,  
 E. Mansoor,  S. F. Manzer,  Shan-Ping Mao,  Yuezhi Mao,  N. Mardirossian,  
 A. V. Marenich,  T. Markovich,  L. A. Martinez-Martinez,  S. A. Maurer,  
 N. J. Mayhall,  S. C. McKenzie,  J.-M. Mewes,  P. Morgante,  A. F. Morrison,  
 J. W. Mullinax,  K. Nanda,  T. S. Nguyen-Beck,  R. Olivares-Amaya,  
 K. J. Oosterbaan,  J. A. Parkhill,  S. K. Paul,  F. Pavosevic,  Zheng Pei,  
 T. M. Perrine,  F. Plasser,  P. Pokhilko,  S. Prager,  A. Prociuk,  
 E. Ramos,  B. Rana,  D. R. Rehn,  F. Rob,  M. Scheurer,  M. Schneider,  
 N. Sergueev,  S. M. Sharada,  S. Sharma,  D. W. Small,  T. Stauch,  
 C. J. Stein,  T. Stein,  Yu-Chuan Su,  S. P. Veccham,  Zhen Tao,  
 A. J. W. Thom,  A. Tkatchenko,  T. Tsuchimochi,  N. M. Tubman,  L. Vogt,  
 M. L. Vidal,  O. Vydrov,  M. A. Watson,  J. Wenzel,  M. de Wergifosse,  
 T. A. Wesolowski,  A. White,  J. Witte,  A. Yamada,  Jun Yang,  K. Yao,  
 S. Yeganeh,  S. R. Yost,  Zhi-Qiang You,  A. Zech,  Igor Ying Zhang,  
 Xing Zhang,  Yan Zhao,  Ying Zhu,  B. R. Brooks,  G. K. L. Chan,  
 C. J. Cramer,  M. S. Gordon,  W. J. Hehre,  A. Klamt,  M. W. Schmidt,  
 C. D. Sherrill,  D. G. Truhlar,  A. Aspuru-Guzik,  R. Baer,  A. T. Bell,  
 N. A. Besley,  Jeng-Da Chai,  A. E. DePrince, III,  R. A. DiStasio Jr.,  
 A. Dreuw,  B. D. Dunietz,  T. R. Furlani,  Chao-Ping Hsu,  Yousung Jung,  
 Jing Kong,  D. S. Lambrecht,  WanZhen Liang,  C. Ochsenfeld,  
 V. A. Rassolov,  L. V. Slipchenko,  J. E. Subotnik,  T. Van Voorhis,  
 J. M. Herbert,  A. I. Krylov,  P. M. W. Gill,  M. Head-Gordon

 Contributors to earlier versions of Q-Chem not listed above: 
 R. D. Adamson,  B. Austin,  J. Baker,  G. J. O. Beran,  K. Brandhorst,  
 S. T. Brown,  E. F. C. Byrd,  A. K. Chakraborty,  C.-L. Cheng,  
 Siu Hung Chien,  D. M. Chipman,  D. L. Crittenden,  H. Dachsel,  
 R. J. Doerksen,  A. D. Dutoi,  L. Fusti-Molnar,  W. A. Goddard III,  
 A. Golubeva-Zadorozhnaya,  S. R. Gwaltney,  G. Hawkins,  A. Heyden,  
 S. Hirata,  G. Kedziora,  F. J. Keil,  C. Kelley,  Jihan Kim,  R. A. King,  
 R. Z. Khaliullin,  P. P. Korambath,  W. Kurlancheek,  A. M. Lee,  M. S. Lee,  
 S. V. Levchenko,  Ching Yeh Lin,  D. Liotard,  R. C. Lochan,  I. Lotan,  
 P. E. Maslen,  N. Nair,  D. P. O'Neill,  D. Neuhauser,  E. Neuscamman,  
 C. M. Oana,  R. Olson,  B. Peters,  R. Peverati,  P. A. Pieniazek,  
 Y. M. Rhee,  J. Ritchie,  M. A. Rohrdanz,  E. Rosta,  N. J. Russ,  
 H. F. Schaefer III,  N. E. Schultz,  N. Shenvi,  A. C. Simmonett,  A. Sodt,  
 D. Stuck,  K. S. Thanthiriwatte,  V. Vanovschi,  Tao Wang,  A. Warshel,  
 C. F. Williams,  Q. Wu,  X. Xu,  W. Zhang

 Please cite Q-Chem as follows:
 Y. Shao et al., Mol. Phys. 113, 184-215 (2015)
 DOI: 10.1080/00268976.2014.952696

 Q-Chem 5.3.0 for Intel X86 EM64T Linux

 Parts of Q-Chem use Armadillo 9.800.1 (Horizon Scraper).
 http://arma.sourceforge.net/

 Q-Chem begins on Sun Jul 12 20:26:29 2020  

Host: centos77-c2
0

     Scratch files written to /tmp/28905.centos77-h1/qchem122917//
Processing $rem in /opt/qchem-5.3.0-intel2020u1//config/preferences:
Processing $rem in /home/shihchengli/.qchemrc:

Checking the input file for inconsistencies... 	...done.

--------------------------------------------------------------
User input:
--------------------------------------------------------------
$rem
   JOBTYPE  sp
   EXCHANGE   omegaB97X-D
   BASIS   6-311+G(2df,2pd)
   UNRESTRICTED   True
   max_scf_cycles   250
   geom_opt_max_cycles   1500
   basis2 6-31G*
   scf_algorithm rca_diis
   SYM_IGNORE  TRUE
   print_input   true
   geom_opt_dmax   80
   pop_mulliken false
   XC_GRID 000075000302
$end

$molecule
0 2
N       -0.0001215077     -0.0592497866     -0.0000000000
O       0.0002099575     -1.2631729275     0.0000000000
O       -1.0501582136     0.6594177186     0.0000000000
O       1.0500700455     0.6590769174     0.0000000000
$end
--------------------------------------------------------------
 ----------------------------------------------------------------
             Standard Nuclear Orientation (Angstroms)
    I     Atom           X                Y                Z
 ----------------------------------------------------------------
    1      N      -0.0001215077    -0.0592497866     0.0000000000
    2      O       0.0002099575    -1.2631729275     0.0000000000
    3      O      -1.0501582136     0.6594177186     0.0000000000
    4      O       1.0500700455     0.6590769174     0.0000000000
 ----------------------------------------------------------------
 Nuclear Repulsion Energy =         118.24137239 hartrees
 There are       16 alpha and       15 beta electrons
 Requested basis set is 6-311+G(2df,2pd)
 There are 32 shells and 136 basis functions

 Total QAlloc Memory Limit   2000 MB
 Mega-Array Size       188 MB
 MEM_STATIC part       192 MB

                       Distance Matrix (Angstroms)
             N (  1)   O (  2)   O (  3)
   O (  2)  1.203923
   O (  3)  1.272423  2.190805
   O (  4)  1.272358  2.190263  2.100228
 
 A cutoff of  1.0D-09 yielded    511 shell pairs
 There are      9487 function pairs (     12547 Cartesian)
 Smallest overlap matrix eigenvalue = 1.11E-03

 Scale SEOQF with 1.000000e-01/1.000000e-01/1.000000e-01

 Standard Electronic Orientation quadrupole field applied
 Nucleus-field energy     =     0.0000000020 hartrees
 Requested basis set is 6-31G(d)
 There are 16 shells and 56 basis functions
 A cutoff of  1.0D-09 yielded    133 shell pairs
 There are      1681 function pairs (      1935 Cartesian)
 Smallest overlap matrix eigenvalue = 5.93E-03
 Guess from superposition of atomic densities
 Warning:  Energy on first SCF cycle will be non-variational
 SAD guess density has 31.000000 electrons
 Long-range K will be added via erf
 Coulomb attenuation parameter = 0.2 bohr**(-1)
 An unrestricted hybrid HF-DFT SCF calculation will be
 performed using Relaxed Constraint Minimization + Pulay DIIS
 Exchange:     0.2220 Hartree-Fock + 1.0000 wB97X-D + LR-HF
 Correlation:  1.0000 wB97X-D
 Using Euler-Maclaurin-Lebedev (75,302) quadrature formula
 Dispersion:   Grimme D
 SCF converges when DIIS error is below 1.0E-04
 using 6 threads for integral computing
 -------------------------------------------------------
 OpenMP Integral computing Module                
 Release: version 1.0, May 2013, Q-Chem Inc. Pittsburgh 
 -------------------------------------------------------
 using 6 threads for integral computing
 -------------------------------------------------------
 OpenMP Integral computing Module                
 Release: version 1.0, May 2013, Q-Chem Inc. Pittsburgh 
 -------------------------------------------------------
 ---------------------------------------
  Cycle       Energy         DIIS Error
 ---------------------------------------
    1    -280.8627343876      1.08E-01
    2    -279.9047923009      2.64E-02
    3    -279.9932839532      4.27E-03
    4    -280.1099875770      4.21E-03
    5    -280.1122021074      6.35E-04 Done RCA. Switching to DIIS
    6    -280.1152291847      6.33E-04
    7    -280.1154715235      1.90E-04
    8    -280.1156122384      1.29E-04
    9    -280.1157227728      3.33E-05 Convergence criterion met
 ---------------------------------------
 <S^2> = 0.7565
 SCF time:  CPU 11.99 s  wall 2.44 s
 SCF   energy in the small basis set = -280.11572277
 Total energy in the small basis set = -280.11572277
 ----------------------------------------------------
  Cycle       Energy    
 ----------------------------------------------------
    1     -28.3085637844     -2.83E+01
 Long-range K will be added via erf
 Coulomb attenuation parameter = 0.2 bohr**(-1)
 An unrestricted hybrid HF-DFT SCF calculation will be
 performed using Relaxed Constraint Minimization + Pulay DIIS
 Exchange:     0.2220 Hartree-Fock + 1.0000 wB97X-D + LR-HF
 Correlation:  1.0000 wB97X-D
 Using Euler-Maclaurin-Lebedev (75,302) quadrature formula
 Dispersion:   Grimme D
 SCF converges when DIIS error is below 1.0E-05
 Basis2 calculation detected. Using small basis as guess for larger.
 SCFMinFind is unable to tell whether the solution found is close.
 Resetting ReadMinima to 0 and attempting to follow guess.
 SCFMinFind following SCF Guess.
 using 6 threads for integral computing
 -------------------------------------------------------
 OpenMP Integral computing Module                
 Release: version 1.0, May 2013, Q-Chem Inc. Pittsburgh 
 -------------------------------------------------------
 using 6 threads for integral computing
 -------------------------------------------------------
 OpenMP Integral computing Module                
 Release: version 1.0, May 2013, Q-Chem Inc. Pittsburgh 
 -------------------------------------------------------
 ---------------------------------------
  Cycle       Energy         DIIS Error
 ---------------------------------------
    1    -280.1810375779      9.95E-03
    2    -280.1835557027      5.25E-03
    3    -280.1974573533      1.70E-03
    4    -280.2176991455      1.30E-03
    5    -280.2198276018      3.66E-04 Done RCA. Switching to DIIS
    6    -280.2224074745      5.21E-04
    7    -280.2229874499      8.96E-05
    8    -280.2230703644      4.44E-05
    9    -280.2231787150      4.60E-05
   10    -280.2232259692      1.10E-05
   11    -280.2232267459      2.45E-06 Convergence criterion met
 ---------------------------------------
 <S^2> = 0.7582
 SCF time:  CPU 46.13 s  wall 8.20 s
 SCF   energy in the final basis set = -280.22322675
 Total energy in the final basis set = -280.22322675
 
 --------------------------------------------------------------
 
                    Orbital Energies (a.u.)
 --------------------------------------------------------------
 
 Alpha MOs
 -- Occupied --
-19.3942 -19.3942 -19.3661 -14.7870  -1.4531  -1.2547  -1.2225  -0.7970
 -0.7241  -0.7122  -0.7025  -0.5496  -0.5136  -0.4889  -0.4827  -0.4640
 -- Virtual --
 -0.0407   0.0838   0.1376   0.1386   0.1589   0.2040   0.2195   0.2391
  0.2487   0.2594   0.2594   0.3261   0.3299   0.3330   0.3454   0.3460
  0.3473   0.4311   0.4382   0.4509   0.7614   0.7940   0.8680   0.8807
  0.9722   0.9921   1.0143   1.0505   1.0610   1.0668   1.0727   1.1097
  1.1101   1.1496   1.1762   1.3460   1.3799   1.4659   1.5028   1.5352
  1.5613   1.5820   1.5842   1.6255   1.7681   1.8078   1.9223   1.9395
  1.9420   2.2141   2.3041   2.3932   2.4219   2.4929   2.6677   2.7296
  3.6249   3.6667   3.6742   3.7027   3.7104   3.9406   3.9625   4.2028
  4.2974   4.3965   4.4472   4.5323   4.6105   4.6112   4.6843   4.9692
  4.9852   4.9978   5.0037   5.0134   5.0215   5.0279   5.0642   5.0932
  5.0994   5.1036   5.1061   5.1341   5.2097   5.2101   5.3595   5.4112
  5.4365   5.6119   5.7440   5.8111   6.0358   6.1453   6.1829   6.4140
  6.5219   6.5991   6.7271   6.7291   6.7724   6.7763   6.7879   6.8224
  7.0302   7.1553   7.1562   7.1964   7.2068   7.3484   7.5039   7.5054
  7.6948   7.7719   7.9450   7.9915  36.0547  50.0116  50.1027  50.1955
 
 Beta MOs
 -- Occupied --
-19.3816 -19.3815 -19.3638 -14.7879  -1.4425  -1.2394  -1.1907  -0.7776
 -0.7218  -0.6916  -0.6821  -0.4751  -0.4698  -0.4682  -0.4615
 -- Virtual --
 -0.1739  -0.0372   0.0844   0.1375   0.1378   0.1586   0.2109   0.2209
  0.2400   0.2512   0.2587   0.2593   0.3273   0.3289   0.3373   0.3455
  0.3468   0.3511   0.4408   0.4440   0.4533   0.7606   0.7957   0.8725
  0.8908   0.9742   0.9938   1.0177   1.0630   1.0702   1.0705   1.0782
  1.1126   1.1161   1.1740   1.1792   1.3532   1.3912   1.4878   1.5184
  1.5414   1.5837   1.5881   1.5959   1.6362   1.7796   1.8171   1.9316
  1.9450   1.9655   2.2179   2.3086   2.4041   2.4300   2.4950   2.6821
  2.7395   3.6232   3.6679   3.6753   3.7029   3.7125   3.9405   3.9731
  4.2083   4.3051   4.4017   4.4534   4.5392   4.6095   4.6160   4.6842
  4.9915   5.0119   5.0318   5.0336   5.0340   5.0425   5.0566   5.0840
  5.1119   5.1126   5.1273   5.1367   5.1404   5.2234   5.2408   5.3730
  5.4182   5.4554   5.6284   5.7522   5.8190   6.0526   6.1770   6.1895
  6.4220   6.5356   6.6038   6.7597   6.7705   6.8020   6.8225   6.8243
  6.8382   7.0665   7.1657   7.1676   7.2085   7.2142   7.3874   7.5195
  7.5256   7.7125   7.7811   7.9528   7.9959  36.0538  50.0237  50.1148
 50.1975
 --------------------------------------------------------------
 
 -----------------------------------------------------------------
                    Cartesian Multipole Moments
 -----------------------------------------------------------------
    Charge (ESU x 10^10)
                -0.0000
    Dipole Moment (Debye)
         X       0.0007      Y       0.0792      Z      -0.0000
       Tot       0.0792
    Quadrupole Moments (Debye-Ang)
        XX     -22.2463     XY       0.0007     YY     -23.0697
        XZ       0.0000     YZ       0.0000     ZZ     -20.1914
    Octopole Moments (Debye-Ang^2)
       XXX       0.0027    XXY      -0.5532    XYY       0.0010
       YYY       1.2957    XXZ      -0.0000    XYZ       0.0000
       YYZ      -0.0000    XZZ       0.0003    YZZ      -0.3273
       ZZZ      -0.0000
    Hexadecapole Moments (Debye-Ang^3)
      XXXX     -85.2450   XXXY       0.0106   XXYY     -30.5591
      XYYY       0.0102   YYYY     -95.6761   XXXZ       0.0000
      XXYZ       0.0000   XYYZ      -0.0000   YYYZ       0.0000
      XXZZ     -17.3484   XYZZ       0.0036   YYZZ     -18.5142
      XZZZ       0.0000   YZZZ       0.0000   ZZZZ     -15.2170
 -----------------------------------------------------------------
Archival summary:
1\1\centos77-c2\SP\ProcedureUnspecified\BasisUnspecified\31(2)\shihchen\SunJul1220:26:412020SunJul1220:26:412020\0\\#,ProcedureUnspecified,BasisUnspecified,\\0,2\N\O,1,1.20392\O,1,1.27236,2,124.356\O,1,1.27242,2,124.404,3,-180,0\\\@

 Total job time:  12.83s(wall), 62.49s(cpu) 
 Sun Jul 12 20:26:41 2020

        *************************************************************
        *                                                           *
        *  Thank you very much for using Q-Chem.  Have a nice day.  *
        *                                                           *
        *************************************************************


