                  Welcome to Q-Chem
     A Quantum Leap Into The Future Of Chemistry


 Q-Chem 5.3 (devel), Q-Chem, Inc., Pleasanton, CA (2020)

 Yihan Shao,  Zhengting Gan,  E. Epifanovsky,  A. T. B. Gilbert,  M. Wormit,  
 J. Kussmann,  A. W. Lange,  A. Behn,  Jia Deng,  Xintian Feng,  D. Ghosh,  
 M. Goldey,  P. R. Horn,  L. D. Jacobson,  I. Kaliman,  T. Kus,  A. Landau,  
 Jie Liu,  E. I. Proynov,  R. M. Richard,  R. P. Steele,  E. J. Sundstrom,  
 H. L. Woodcock III,  P. M. Zimmerman,  D. Zuev,  B. Alam,  B. Albrecht,  
 E. Alguire,  S. A. Baeppler,  D. Barton,  Z. Benda,  Y. A. Bernard,  
 E. J. Berquist,  K. B. Bravaya,  H. Burton,  K. Carter-Fenk,  D. Casanova,  
 Chun-Min Chang,  Yunqing Chen,  A. Chien,  K. D. Closser,  M. P. Coons,  
 S. Coriani,  S. Dasgupta,  A. L. Dempwolff,  M. Diedenhofen,  Hainam Do,  
 R. G. Edgar,  Po-Tung Fang,  S. Faraji,  S. Fatehi,  Qingguo Feng,  
 J. Fosso-Tande,  J. Gayvert,  Qinghui Ge,  A. Ghysels,  G. Gidofalvi,  
 J. Gomes,  J. Gonthier,  A. Gunina,  D. Hait,  M. W. D. Hanson-Heine,  
 P. H. P. Harbach,  A. W. Hauser,  M. F. Herbst,  J. E. Herr,  
 E. G. Hohenstein,  Z. C. Holden,  Kerwin Hui,  B. C. Huynh,  T.-C. Jagau,  
 Hyunjun Ji,  B. Kaduk,  K. Khistyaev,  Jaehoon Kim,  P. Klunzinger,  K. Koh,  
 D. Kosenkov,  L. Koulias,  T. Kowalczyk,  C. M. Krauter,  A. Kunitsa,  
 Ka Un Lao,  A. Laurent,  K. V. Lawler,  Joonho Lee,  D. Lefrancois,  
 S. Lehtola,  D. S. Levine,  Yi-Pei Li,  You-Sheng Lin,  Fenglai Liu,  
 Kuan-Yu Liu,  E. Livshits,  M. Loipersberger,  A. Luenser,  P. Manohar,  
 E. Mansoor,  S. F. Manzer,  Shan-Ping Mao,  Yuezhi Mao,  N. Mardirossian,  
 A. V. Marenich,  T. Markovich,  L. A. Martinez-Martinez,  S. A. Maurer,  
 N. J. Mayhall,  S. C. McKenzie,  J.-M. Mewes,  P. Morgante,  A. F. Morrison,  
 J. W. Mullinax,  K. Nanda,  T. S. Nguyen-Beck,  R. Olivares-Amaya,  
 K. J. Oosterbaan,  J. A. Parkhill,  S. K. Paul,  F. Pavosevic,  Zheng Pei,  
 T. M. Perrine,  F. Plasser,  P. Pokhilko,  S. Prager,  A. Prociuk,  
 E. Ramos,  B. Rana,  D. R. Rehn,  F. Rob,  M. Scheurer,  M. Schneider,  
 N. Sergueev,  S. M. Sharada,  S. Sharma,  D. W. Small,  T. Stauch,  
 C. J. Stein,  T. Stein,  Yu-Chuan Su,  S. P. Veccham,  Zhen Tao,  
 A. J. W. Thom,  A. Tkatchenko,  T. Tsuchimochi,  N. M. Tubman,  L. Vogt,  
 M. L. Vidal,  O. Vydrov,  M. A. Watson,  J. Wenzel,  M. de Wergifosse,  
 T. A. Wesolowski,  A. White,  J. Witte,  A. Yamada,  Jun Yang,  K. Yao,  
 S. Yeganeh,  S. R. Yost,  Zhi-Qiang You,  A. Zech,  Igor Ying Zhang,  
 Xing Zhang,  Yan Zhao,  Ying Zhu,  B. R. Brooks,  G. K. L. Chan,  
 C. J. Cramer,  M. S. Gordon,  W. J. Hehre,  A. Klamt,  M. W. Schmidt,  
 C. D. Sherrill,  D. G. Truhlar,  A. Aspuru-Guzik,  R. Baer,  A. T. Bell,  
 N. A. Besley,  Jeng-Da Chai,  A. E. DePrince, III,  R. A. DiStasio Jr.,  
 A. Dreuw,  B. D. Dunietz,  T. R. Furlani,  Chao-Ping Hsu,  Yousung Jung,  
 Jing Kong,  D. S. Lambrecht,  WanZhen Liang,  C. Ochsenfeld,  
 V. A. Rassolov,  L. V. Slipchenko,  J. E. Subotnik,  T. Van Voorhis,  
 J. M. Herbert,  A. I. Krylov,  P. M. W. Gill,  M. Head-Gordon

 Contributors to earlier versions of Q-Chem not listed above: 
 R. D. Adamson,  B. Austin,  J. Baker,  G. J. O. Beran,  K. Brandhorst,  
 S. T. Brown,  E. F. C. Byrd,  A. K. Chakraborty,  C.-L. Cheng,  
 Siu Hung Chien,  D. M. Chipman,  D. L. Crittenden,  H. Dachsel,  
 R. J. Doerksen,  A. D. Dutoi,  L. Fusti-Molnar,  W. A. Goddard III,  
 A. Golubeva-Zadorozhnaya,  S. R. Gwaltney,  G. Hawkins,  A. Heyden,  
 S. Hirata,  G. Kedziora,  F. J. Keil,  C. Kelley,  Jihan Kim,  R. A. King,  
 R. Z. Khaliullin,  P. P. Korambath,  W. Kurlancheek,  A. M. Lee,  M. S. Lee,  
 S. V. Levchenko,  Ching Yeh Lin,  D. Liotard,  R. C. Lochan,  I. Lotan,  
 P. E. Maslen,  N. Nair,  D. P. O'Neill,  D. Neuhauser,  E. Neuscamman,  
 C. M. Oana,  R. Olson,  B. Peters,  R. Peverati,  P. A. Pieniazek,  
 Y. M. Rhee,  J. Ritchie,  M. A. Rohrdanz,  E. Rosta,  N. J. Russ,  
 H. F. Schaefer III,  N. E. Schultz,  N. Shenvi,  A. C. Simmonett,  A. Sodt,  
 D. Stuck,  K. S. Thanthiriwatte,  V. Vanovschi,  Tao Wang,  A. Warshel,  
 C. F. Williams,  Q. Wu,  X. Xu,  W. Zhang

 Please cite Q-Chem as follows:
 Y. Shao et al., Mol. Phys. 113, 184-215 (2015)
 DOI: 10.1080/00268976.2014.952696

 Q-Chem 5.3.0 for Intel X86 EM64T Linux

 Parts of Q-Chem use Armadillo 9.800.1 (Horizon Scraper).
 http://arma.sourceforge.net/

 Q-Chem begins on Sun Jul 12 20:14:47 2020  

Host: centos77-c2
0

     Scratch files written to /tmp/28905.centos77-h1/qchem120207//
Processing $rem in /opt/qchem-5.3.0-intel2020u1//config/preferences:
Processing $rem in /home/shihchengli/.qchemrc:

Checking the input file for inconsistencies... 	...done.

--------------------------------------------------------------
User input:
--------------------------------------------------------------
$rem
   JOBTYPE  sp
   EXCHANGE   omegaB97X-D
   BASIS   6-311+G(2df,2pd)
   UNRESTRICTED   True
   max_scf_cycles   250
   geom_opt_max_cycles   1500
   basis2 6-31G*
   scf_algorithm rca_diis
   SYM_IGNORE  TRUE
   print_input   true
   geom_opt_dmax   80
   pop_mulliken false
   XC_GRID 000075000302
$end

$molecule
0 2
N       0.0056293342     -0.1552637809     0.0000000000
O       -0.0035189080     -1.3180128086     -0.0000000000
O       -0.9141761921     0.7334171052     -0.0000000000
O       0.9120660477     0.7359314062     -0.0000000000
$end
--------------------------------------------------------------
 ----------------------------------------------------------------
             Standard Nuclear Orientation (Angstroms)
    I     Atom           X                Y                Z
 ----------------------------------------------------------------
    1      N       0.0056293342    -0.1552637809     0.0000000000
    2      O      -0.0035189080    -1.3180128086     0.0000000000
    3      O      -0.9141761921     0.7334171052     0.0000000000
    4      O       0.9120660477     0.7359314062     0.0000000000
 ----------------------------------------------------------------
 Nuclear Repulsion Energy =         120.66195115 hartrees
 There are       16 alpha and       15 beta electrons
 Requested basis set is 6-311+G(2df,2pd)
 There are 32 shells and 136 basis functions

 Total QAlloc Memory Limit   2000 MB
 Mega-Array Size       188 MB
 MEM_STATIC part       192 MB

                       Distance Matrix (Angstroms)
             N (  1)   O (  2)   O (  3)
   O (  2)  1.162785
   O (  3)  1.278982  2.244474
   O (  4)  1.271163  2.248774  1.826244
 
 A cutoff of  1.0D-09 yielded    511 shell pairs
 There are      9425 function pairs (     12471 Cartesian)
 Smallest overlap matrix eigenvalue = 9.54E-04

 Scale SEOQF with 1.000000e-01/1.000000e-01/1.000000e-01

 Standard Electronic Orientation quadrupole field applied
 Nucleus-field energy     =     0.0000000021 hartrees
 Requested basis set is 6-31G(d)
 There are 16 shells and 56 basis functions
 A cutoff of  1.0D-09 yielded    133 shell pairs
 There are      1681 function pairs (      1935 Cartesian)
 Smallest overlap matrix eigenvalue = 4.84E-03
 Guess from superposition of atomic densities
 Warning:  Energy on first SCF cycle will be non-variational
 SAD guess density has 31.000000 electrons
 Long-range K will be added via erf
 Coulomb attenuation parameter = 0.2 bohr**(-1)
 An unrestricted hybrid HF-DFT SCF calculation will be
 performed using Relaxed Constraint Minimization + Pulay DIIS
 Exchange:     0.2220 Hartree-Fock + 1.0000 wB97X-D + LR-HF
 Correlation:  1.0000 wB97X-D
 Using Euler-Maclaurin-Lebedev (75,302) quadrature formula
 Dispersion:   Grimme D
 SCF converges when DIIS error is below 1.0E-04
 using 6 threads for integral computing
 -------------------------------------------------------
 OpenMP Integral computing Module                
 Release: version 1.0, May 2013, Q-Chem Inc. Pittsburgh 
 -------------------------------------------------------
 using 6 threads for integral computing
 -------------------------------------------------------
 OpenMP Integral computing Module                
 Release: version 1.0, May 2013, Q-Chem Inc. Pittsburgh 
 -------------------------------------------------------
 ---------------------------------------
  Cycle       Energy         DIIS Error
 ---------------------------------------
    1    -281.0092162687      1.14E-01
    2    -279.8837484732      2.68E-02
    3    -279.9745090686      4.28E-03
    4    -280.0932361056      4.09E-03
    5    -280.0953556470      5.51E-04 Done RCA. Switching to DIIS
    6    -280.0980360019      4.40E-04
    7    -280.0981174019      1.00E-04
    8    -280.0981269022      5.28E-05 Convergence criterion met
 ---------------------------------------
 <S^2> = 0.7557
 SCF time:  CPU 13.47 s  wall 2.71 s
 SCF   energy in the small basis set = -280.09812690
 Total energy in the small basis set = -280.09812690
 ----------------------------------------------------
  Cycle       Energy    
 ----------------------------------------------------
    1     -28.3717833192     -2.84E+01
 Long-range K will be added via erf
 Coulomb attenuation parameter = 0.2 bohr**(-1)
 An unrestricted hybrid HF-DFT SCF calculation will be
 performed using Relaxed Constraint Minimization + Pulay DIIS
 Exchange:     0.2220 Hartree-Fock + 1.0000 wB97X-D + LR-HF
 Correlation:  1.0000 wB97X-D
 Using Euler-Maclaurin-Lebedev (75,302) quadrature formula
 Dispersion:   Grimme D
 SCF converges when DIIS error is below 1.0E-05
 Basis2 calculation detected. Using small basis as guess for larger.
 SCFMinFind is unable to tell whether the solution found is close.
 Resetting ReadMinima to 0 and attempting to follow guess.
 SCFMinFind following SCF Guess.
 using 6 threads for integral computing
 -------------------------------------------------------
 OpenMP Integral computing Module                
 Release: version 1.0, May 2013, Q-Chem Inc. Pittsburgh 
 -------------------------------------------------------
 using 6 threads for integral computing
 -------------------------------------------------------
 OpenMP Integral computing Module                
 Release: version 1.0, May 2013, Q-Chem Inc. Pittsburgh 
 -------------------------------------------------------
 ---------------------------------------
  Cycle       Energy         DIIS Error
 ---------------------------------------
    1    -280.1689822438      9.86E-03
    2    -280.1837555270      4.14E-03
    3    -280.1936368469      7.33E-04 Done RCA. Switching to DIIS
    4    -280.2061814417      5.44E-04
    5    -280.2066139086      1.26E-04
    6    -280.2066506658      6.02E-05
    7    -280.2066702385      1.90E-05
    8    -280.2066734995      1.63E-05
    9    -280.2066755692      3.48E-06 Convergence criterion met
 ---------------------------------------
 <S^2> = 0.7573
 SCF time:  CPU 35.80 s  wall 6.67 s
 SCF   energy in the final basis set = -280.20667557
 Total energy in the final basis set = -280.20667557
 
 --------------------------------------------------------------
 
                    Orbital Energies (a.u.)
 --------------------------------------------------------------
 
 Alpha MOs
 -- Occupied --
-19.3760 -19.3755 -19.3742 -14.7839  -1.4713  -1.3046  -1.1733  -0.7921
 -0.7334  -0.7056  -0.7035  -0.5758  -0.4974  -0.4837  -0.4637  -0.4351
 -- Virtual --
 -0.0319   0.0819   0.1364   0.1375   0.1569   0.2032   0.2107   0.2427
  0.2559   0.2577   0.2636   0.2907   0.3162   0.3232   0.3449   0.3548
  0.3614   0.4342   0.4444   0.5297   0.7583   0.7646   0.8497   0.9448
  0.9529   1.0080   1.0299   1.0376   1.0552   1.0565   1.0900   1.1014
  1.1046   1.1782   1.1816   1.2726   1.3827   1.4365   1.5159   1.5487
  1.5588   1.6082   1.6294   1.7183   1.7265   1.7809   1.9371   1.9480
  2.1604   2.2476   2.3801   2.4282   2.4963   2.5115   2.6961   2.7050
  3.5837   3.6225   3.6302   3.7060   3.7593   3.8927   3.9820   4.1104
  4.3369   4.3651   4.4119   4.5095   4.5282   4.6249   4.7251   4.9579
  4.9735   4.9822   4.9970   5.0143   5.0338   5.0491   5.0795   5.1040
  5.1049   5.1201   5.1685   5.2123   5.2858   5.3724   5.3948   5.4338
  5.4799   5.5194   5.6282   5.6820   6.0443   6.0730   6.5132   6.5665
  6.6486   6.7340   6.7411   6.7861   6.7977   6.8658   6.9102   6.9574
  6.9861   7.1192   7.1801   7.1852   7.2347   7.3020   7.5014   7.6854
  7.7920   7.8539   8.0929   8.2552  36.1385  50.0115  50.1701  50.2840
 
 Beta MOs
 -- Occupied --
-19.3750 -19.3617 -19.3607 -14.7846  -1.4604  -1.2903  -1.1376  -0.7759
 -0.7314  -0.6867  -0.6866  -0.4908  -0.4865  -0.4766  -0.4421
 -- Virtual --
 -0.1038  -0.0294   0.0834   0.1379   0.1419   0.1573   0.2080   0.2167
  0.2456   0.2576   0.2599   0.2650   0.2976   0.3161   0.3249   0.3449
  0.3562   0.3641   0.4395   0.4462   0.5381   0.7579   0.7663   0.8522
  0.9491   0.9541   1.0116   1.0339   1.0424   1.0585   1.0841   1.0976
  1.1039   1.1082   1.1805   1.2086   1.2824   1.3929   1.4514   1.5180
  1.5530   1.5720   1.6200   1.6523   1.7226   1.7511   1.7886   1.9464
  1.9506   2.1636   2.2668   2.3826   2.4391   2.5128   2.5162   2.7066
  2.7112   3.5848   3.6233   3.6287   3.7071   3.7619   3.8995   3.9835
  4.1158   4.3444   4.3732   4.4198   4.5093   4.5347   4.6257   4.7361
  4.9812   5.0005   5.0104   5.0190   5.0302   5.0648   5.0784   5.0863
  5.1209   5.1314   5.1363   5.1716   5.2369   5.3096   5.3757   5.4361
  5.4492   5.5028   5.5270   5.6366   5.6915   6.0587   6.0812   6.5215
  6.5914   6.7008   6.7459   6.7855   6.7958   6.8416   6.9092   6.9233
  6.9665   6.9896   7.1267   7.1969   7.2220   7.2409   7.3153   7.5242
  7.7267   7.7937   7.8711   8.1065   8.2613  36.1378  50.0254  50.1841
 50.2836
 --------------------------------------------------------------
 
 -----------------------------------------------------------------
                    Cartesian Multipole Moments
 -----------------------------------------------------------------
    Charge (ESU x 10^10)
                -0.0000
    Dipole Moment (Debye)
         X       0.0155      Y      -0.4476      Z       0.0000
       Tot       0.4479
    Quadrupole Moments (Debye-Ang)
        XX     -22.0997     XY       0.0036     YY     -22.9450
        XZ       0.0000     YZ       0.0000     ZZ     -20.0509
    Octopole Moments (Debye-Ang^2)
       XXX      -0.0257    XXY      -0.8517    XYY       0.0042
       YYY       1.2899    XXZ       0.0000    XYZ       0.0000
       YYZ       0.0000    XZZ       0.0261    YZZ      -0.6680
       ZZZ       0.0000
    Hexadecapole Moments (Debye-Ang^3)
      XXXX     -69.6602   XXXY      -0.0737   XXYY     -29.4597
      XYYY       0.0008   YYYY    -105.5110   XXXZ       0.0000
      XXYZ       0.0000   XYYZ       0.0000   YYYZ       0.0000
      XXZZ     -14.5746   XYZZ      -0.0029   YYZZ     -20.0592
      XZZZ       0.0000   YZZZ       0.0000   ZZZZ     -14.9716
 -----------------------------------------------------------------
Archival summary:
1\1\centos77-c2\SP\ProcedureUnspecified\BasisUnspecified\31(2)\shihchen\SunJul1220:14:592020SunJul1220:14:592020\0\\#,ProcedureUnspecified,BasisUnspecified,\\0,2\N\O,1,1.16279\O,1,1.27116,2,134.965\O,1,1.27898,2,133.563,3,-180,0\\\@

 Total job time:  11.32s(wall), 53.20s(cpu) 
 Sun Jul 12 20:14:59 2020

        *************************************************************
        *                                                           *
        *  Thank you very much for using Q-Chem.  Have a nice day.  *
        *                                                           *
        *************************************************************


