                  Welcome to Q-Chem
     A Quantum Leap Into The Future Of Chemistry


 Q-Chem 5.3 (devel), Q-Chem, Inc., Pleasanton, CA (2020)

 Yihan Shao,  Zhengting Gan,  E. Epifanovsky,  A. T. B. Gilbert,  M. Wormit,  
 J. Kussmann,  A. W. Lange,  A. Behn,  Jia Deng,  Xintian Feng,  D. Ghosh,  
 M. Goldey,  P. R. Horn,  L. D. Jacobson,  I. Kaliman,  T. Kus,  A. Landau,  
 Jie Liu,  E. I. Proynov,  R. M. Richard,  R. P. Steele,  E. J. Sundstrom,  
 H. L. Woodcock III,  P. M. Zimmerman,  D. Zuev,  B. Alam,  B. Albrecht,  
 E. Alguire,  S. A. Baeppler,  D. Barton,  Z. Benda,  Y. A. Bernard,  
 E. J. Berquist,  K. B. Bravaya,  H. Burton,  K. Carter-Fenk,  D. Casanova,  
 Chun-Min Chang,  Yunqing Chen,  A. Chien,  K. D. Closser,  M. P. Coons,  
 S. Coriani,  S. Dasgupta,  A. L. Dempwolff,  M. Diedenhofen,  Hainam Do,  
 R. G. Edgar,  Po-Tung Fang,  S. Faraji,  S. Fatehi,  Qingguo Feng,  
 J. Fosso-Tande,  J. Gayvert,  Qinghui Ge,  A. Ghysels,  G. Gidofalvi,  
 J. Gomes,  J. Gonthier,  A. Gunina,  D. Hait,  M. W. D. Hanson-Heine,  
 P. H. P. Harbach,  A. W. Hauser,  M. F. Herbst,  J. E. Herr,  
 E. G. Hohenstein,  Z. C. Holden,  Kerwin Hui,  B. C. Huynh,  T.-C. Jagau,  
 Hyunjun Ji,  B. Kaduk,  K. Khistyaev,  Jaehoon Kim,  P. Klunzinger,  K. Koh,  
 D. Kosenkov,  L. Koulias,  T. Kowalczyk,  C. M. Krauter,  A. Kunitsa,  
 Ka Un Lao,  A. Laurent,  K. V. Lawler,  Joonho Lee,  D. Lefrancois,  
 S. Lehtola,  D. S. Levine,  Yi-Pei Li,  You-Sheng Lin,  Fenglai Liu,  
 Kuan-Yu Liu,  E. Livshits,  M. Loipersberger,  A. Luenser,  P. Manohar,  
 E. Mansoor,  S. F. Manzer,  Shan-Ping Mao,  Yuezhi Mao,  N. Mardirossian,  
 A. V. Marenich,  T. Markovich,  L. A. Martinez-Martinez,  S. A. Maurer,  
 N. J. Mayhall,  S. C. McKenzie,  J.-M. Mewes,  P. Morgante,  A. F. Morrison,  
 J. W. Mullinax,  K. Nanda,  T. S. Nguyen-Beck,  R. Olivares-Amaya,  
 K. J. Oosterbaan,  J. A. Parkhill,  S. K. Paul,  F. Pavosevic,  Zheng Pei,  
 T. M. Perrine,  F. Plasser,  P. Pokhilko,  S. Prager,  A. Prociuk,  
 E. Ramos,  B. Rana,  D. R. Rehn,  F. Rob,  M. Scheurer,  M. Schneider,  
 N. Sergueev,  S. M. Sharada,  S. Sharma,  D. W. Small,  T. Stauch,  
 C. J. Stein,  T. Stein,  Yu-Chuan Su,  S. P. Veccham,  Zhen Tao,  
 A. J. W. Thom,  A. Tkatchenko,  T. Tsuchimochi,  N. M. Tubman,  L. Vogt,  
 M. L. Vidal,  O. Vydrov,  M. A. Watson,  J. Wenzel,  M. de Wergifosse,  
 T. A. Wesolowski,  A. White,  J. Witte,  A. Yamada,  Jun Yang,  K. Yao,  
 S. Yeganeh,  S. R. Yost,  Zhi-Qiang You,  A. Zech,  Igor Ying Zhang,  
 Xing Zhang,  Yan Zhao,  Ying Zhu,  B. R. Brooks,  G. K. L. Chan,  
 C. J. Cramer,  M. S. Gordon,  W. J. Hehre,  A. Klamt,  M. W. Schmidt,  
 C. D. Sherrill,  D. G. Truhlar,  A. Aspuru-Guzik,  R. Baer,  A. T. Bell,  
 N. A. Besley,  Jeng-Da Chai,  A. E. DePrince, III,  R. A. DiStasio Jr.,  
 A. Dreuw,  B. D. Dunietz,  T. R. Furlani,  Chao-Ping Hsu,  Yousung Jung,  
 Jing Kong,  D. S. Lambrecht,  WanZhen Liang,  C. Ochsenfeld,  
 V. A. Rassolov,  L. V. Slipchenko,  J. E. Subotnik,  T. Van Voorhis,  
 J. M. Herbert,  A. I. Krylov,  P. M. W. Gill,  M. Head-Gordon

 Contributors to earlier versions of Q-Chem not listed above: 
 R. D. Adamson,  B. Austin,  J. Baker,  G. J. O. Beran,  K. Brandhorst,  
 S. T. Brown,  E. F. C. Byrd,  A. K. Chakraborty,  C.-L. Cheng,  
 Siu Hung Chien,  D. M. Chipman,  D. L. Crittenden,  H. Dachsel,  
 R. J. Doerksen,  A. D. Dutoi,  L. Fusti-Molnar,  W. A. Goddard III,  
 A. Golubeva-Zadorozhnaya,  S. R. Gwaltney,  G. Hawkins,  A. Heyden,  
 S. Hirata,  G. Kedziora,  F. J. Keil,  C. Kelley,  Jihan Kim,  R. A. King,  
 R. Z. Khaliullin,  P. P. Korambath,  W. Kurlancheek,  A. M. Lee,  M. S. Lee,  
 S. V. Levchenko,  Ching Yeh Lin,  D. Liotard,  R. C. Lochan,  I. Lotan,  
 P. E. Maslen,  N. Nair,  D. P. O'Neill,  D. Neuhauser,  E. Neuscamman,  
 C. M. Oana,  R. Olson,  B. Peters,  R. Peverati,  P. A. Pieniazek,  
 Y. M. Rhee,  J. Ritchie,  M. A. Rohrdanz,  E. Rosta,  N. J. Russ,  
 H. F. Schaefer III,  N. E. Schultz,  N. Shenvi,  A. C. Simmonett,  A. Sodt,  
 D. Stuck,  K. S. Thanthiriwatte,  V. Vanovschi,  Tao Wang,  A. Warshel,  
 C. F. Williams,  Q. Wu,  X. Xu,  W. Zhang

 Please cite Q-Chem as follows:
 Y. Shao et al., Mol. Phys. 113, 184-215 (2015)
 DOI: 10.1080/00268976.2014.952696

 Q-Chem 5.3.0 for Intel X86 EM64T Linux

 Parts of Q-Chem use Armadillo 9.800.1 (Horizon Scraper).
 http://arma.sourceforge.net/

 Q-Chem begins on Sun Jul 12 20:26:42 2020  

Host: centos77-c2
0

     Scratch files written to /tmp/28905.centos77-h1/qchem122957//
Processing $rem in /opt/qchem-5.3.0-intel2020u1//config/preferences:
Processing $rem in /home/shihchengli/.qchemrc:

Checking the input file for inconsistencies... 	...done.

--------------------------------------------------------------
User input:
--------------------------------------------------------------
$rem
   JOBTYPE  sp
   EXCHANGE   omegaB97X-D
   BASIS   6-311+G(2df,2pd)
   UNRESTRICTED   True
   max_scf_cycles   250
   geom_opt_max_cycles   1500
   basis2 6-31G*
   scf_algorithm rca_diis
   SYM_IGNORE  TRUE
   print_input   true
   geom_opt_dmax   80
   pop_mulliken false
   XC_GRID 000075000302
$end

$molecule
0 2
N       0.0000042383     -0.0671682033     -0.0000000000
O       0.0002347575     -1.2813070151     0.0000000000
O       -1.0737991386     0.6725116118     0.0000000000
O       1.0735604247     0.6720355286     0.0000000000
$end
--------------------------------------------------------------
 ----------------------------------------------------------------
             Standard Nuclear Orientation (Angstroms)
    I     Atom           X                Y                Z
 ----------------------------------------------------------------
    1      N       0.0000042383    -0.0671682033     0.0000000000
    2      O       0.0002347575    -1.2813070151     0.0000000000
    3      O      -1.0737991386     0.6725116118     0.0000000000
    4      O       1.0735604247     0.6720355286     0.0000000000
 ----------------------------------------------------------------
 Nuclear Repulsion Energy =         116.02649024 hartrees
 There are       16 alpha and       15 beta electrons
 Requested basis set is 6-311+G(2df,2pd)
 There are 32 shells and 136 basis functions

 Total QAlloc Memory Limit   2000 MB
 Mega-Array Size       188 MB
 MEM_STATIC part       192 MB

                       Distance Matrix (Angstroms)
             N (  1)   O (  2)   O (  3)
   O (  2)  1.214139
   O (  3)  1.303909  2.229564
   O (  4)  1.303436  2.228806  2.147360
 
 A cutoff of  1.0D-09 yielded    511 shell pairs
 There are      9487 function pairs (     12547 Cartesian)
 Smallest overlap matrix eigenvalue = 1.14E-03

 Scale SEOQF with 1.000000e-01/1.000000e-01/1.000000e-01

 Standard Electronic Orientation quadrupole field applied
 Nucleus-field energy     =     0.0000000021 hartrees
 Requested basis set is 6-31G(d)
 There are 16 shells and 56 basis functions
 A cutoff of  1.0D-09 yielded    133 shell pairs
 There are      1681 function pairs (      1935 Cartesian)
 Smallest overlap matrix eigenvalue = 6.31E-03
 Guess from superposition of atomic densities
 Warning:  Energy on first SCF cycle will be non-variational
 SAD guess density has 31.000000 electrons
 Long-range K will be added via erf
 Coulomb attenuation parameter = 0.2 bohr**(-1)
 An unrestricted hybrid HF-DFT SCF calculation will be
 performed using Relaxed Constraint Minimization + Pulay DIIS
 Exchange:     0.2220 Hartree-Fock + 1.0000 wB97X-D + LR-HF
 Correlation:  1.0000 wB97X-D
 Using Euler-Maclaurin-Lebedev (75,302) quadrature formula
 Dispersion:   Grimme D
 SCF converges when DIIS error is below 1.0E-04
 using 6 threads for integral computing
 -------------------------------------------------------
 OpenMP Integral computing Module                
 Release: version 1.0, May 2013, Q-Chem Inc. Pittsburgh 
 -------------------------------------------------------
 using 6 threads for integral computing
 -------------------------------------------------------
 OpenMP Integral computing Module                
 Release: version 1.0, May 2013, Q-Chem Inc. Pittsburgh 
 -------------------------------------------------------
 ---------------------------------------
  Cycle       Energy         DIIS Error
 ---------------------------------------
    1    -280.7051996911      1.02E-01
    2    -279.8874193636      2.69E-02
    3    -279.9790390877      4.66E-03
    4    -280.1021588788      4.94E-03
    5    -280.1051964624      7.29E-04 Done RCA. Switching to DIIS
    6    -280.1093736672      7.14E-04
    7    -280.1097052336      1.96E-04
    8    -280.1098955401      1.36E-04
    9    -280.1100244174      1.05E-04
   10    -280.1100482842      2.89E-05 Convergence criterion met
 ---------------------------------------
 <S^2> = 0.7575
 SCF time:  CPU 16.59 s  wall 3.37 s
 SCF   energy in the small basis set = -280.11004828
 Total energy in the small basis set = -280.11004828
 ----------------------------------------------------
  Cycle       Energy    
 ----------------------------------------------------
    1     -28.2555484872     -2.83E+01
 Long-range K will be added via erf
 Coulomb attenuation parameter = 0.2 bohr**(-1)
 An unrestricted hybrid HF-DFT SCF calculation will be
 performed using Relaxed Constraint Minimization + Pulay DIIS
 Exchange:     0.2220 Hartree-Fock + 1.0000 wB97X-D + LR-HF
 Correlation:  1.0000 wB97X-D
 Using Euler-Maclaurin-Lebedev (75,302) quadrature formula
 Dispersion:   Grimme D
 SCF converges when DIIS error is below 1.0E-05
 Basis2 calculation detected. Using small basis as guess for larger.
 SCFMinFind is unable to tell whether the solution found is close.
 Resetting ReadMinima to 0 and attempting to follow guess.
 SCFMinFind following SCF Guess.
 using 6 threads for integral computing
 -------------------------------------------------------
 OpenMP Integral computing Module                
 Release: version 1.0, May 2013, Q-Chem Inc. Pittsburgh 
 -------------------------------------------------------
 using 6 threads for integral computing
 -------------------------------------------------------
 OpenMP Integral computing Module                
 Release: version 1.0, May 2013, Q-Chem Inc. Pittsburgh 
 -------------------------------------------------------
 ---------------------------------------
  Cycle       Energy         DIIS Error
 ---------------------------------------
    1    -280.1734625344      9.96E-03
    2    -280.1751362912      5.35E-03
    3    -280.1896657459      1.70E-03
    4    -280.2106512891      1.33E-03
    5    -280.2128906602      3.66E-04 Done RCA. Switching to DIIS
    6    -280.2157372874      5.09E-04
    7    -280.2163547425      4.66E-05
    8    -280.2165007786      4.99E-05
    9    -280.2165602329      4.61E-05
   10    -280.2165830736      9.66E-06 Convergence criterion met
 ---------------------------------------
 <S^2> = 0.7593
 SCF time:  CPU 43.03 s  wall 7.87 s
 SCF   energy in the final basis set = -280.21658307
 Total energy in the final basis set = -280.21658307
 
 --------------------------------------------------------------
 
                    Orbital Energies (a.u.)
 --------------------------------------------------------------
 
 Alpha MOs
 -- Occupied --
-19.3973 -19.3972 -19.3711 -14.7868  -1.4323  -1.2441  -1.2077  -0.8021
 -0.7110  -0.7076  -0.6987  -0.5472  -0.5120  -0.4870  -0.4822  -0.4660
 -- Virtual --
 -0.0515   0.0799   0.1377   0.1380   0.1602   0.1754   0.2089   0.2387
  0.2458   0.2591   0.2594   0.3098   0.3249   0.3283   0.3419   0.3438
  0.3457   0.4132   0.4385   0.4474   0.7625   0.7988   0.8679   0.8759
  0.9640   0.9958   1.0122   1.0533   1.0631   1.0655   1.0765   1.1079
  1.1122   1.1500   1.1733   1.3479   1.3781   1.4630   1.4961   1.5277
  1.5494   1.5804   1.5862   1.6201   1.7475   1.7750   1.8993   1.9029
  1.9229   2.1814   2.2799   2.3718   2.3932   2.4756   2.6333   2.6891
  3.6186   3.6609   3.6667   3.6813   3.7078   3.9139   3.9198   4.1428
  4.2423   4.3911   4.4794   4.5575   4.6343   4.6528   4.7235   4.9680
  4.9847   5.0012   5.0088   5.0130   5.0235   5.0244   5.0514   5.0725
  5.0842   5.0884   5.0997   5.1271   5.1871   5.1940   5.3681   5.3768
  5.3860   5.5585   5.6900   5.8022   5.9420   6.0416   6.0657   6.3010
  6.4694   6.5352   6.7191   6.7262   6.7641   6.7737   6.7760   6.8150
  7.0054   7.0635   7.1391   7.1460   7.1934   7.3209   7.4303   7.4671
  7.5538   7.7277   7.9004   7.9625  35.9455  49.9770  50.0546  50.1697
 
 Beta MOs
 -- Occupied --
-19.3844 -19.3843 -19.3696 -14.7877  -1.4226  -1.2281  -1.1742  -0.7833
 -0.7090  -0.6884  -0.6797  -0.4748  -0.4693  -0.4671  -0.4556
 -- Virtual --
 -0.1761  -0.0484   0.0814   0.1378   0.1379   0.1599   0.1836   0.2116
  0.2397   0.2466   0.2584   0.2594   0.3181   0.3261   0.3274   0.3419
  0.3432   0.3454   0.4284   0.4412   0.4467   0.7617   0.8007   0.8721
  0.8862   0.9659   0.9976   1.0152   1.0650   1.0693   1.0723   1.0822
  1.1117   1.1171   1.1755   1.1764   1.3534   1.3906   1.4850   1.5124
  1.5322   1.5733   1.5861   1.5982   1.6312   1.7580   1.7837   1.9125
  1.9257   1.9260   2.1851   2.2842   2.3829   2.4018   2.4777   2.6472
  2.6983   3.6177   3.6608   3.6681   3.6832   3.7079   3.9135   3.9298
  4.1480   4.2487   4.3950   4.4857   4.5627   4.6416   4.6513   4.7235
  4.9910   5.0126   5.0341   5.0356   5.0362   5.0388   5.0590   5.0667
  5.1018   5.1026   5.1099   5.1267   5.1293   5.2098   5.2192   5.3745
  5.3944   5.3968   5.5758   5.6996   5.8099   5.9580   6.0719   6.0725
  6.3091   6.4814   6.5379   6.7527   6.7699   6.7970   6.8155   6.8162
  6.8276   7.0388   7.0784   7.1519   7.1570   7.1993   7.3602   7.4464
  7.4883   7.5696   7.7354   7.9101   7.9676  35.9445  49.9895  50.0671
 50.1711
 --------------------------------------------------------------
 
 -----------------------------------------------------------------
                    Cartesian Multipole Moments
 -----------------------------------------------------------------
    Charge (ESU x 10^10)
                -0.0000
    Dipole Moment (Debye)
         X      -0.0008      Y       0.0079      Z       0.0000
       Tot       0.0080
    Quadrupole Moments (Debye-Ang)
        XX     -22.2438     XY      -0.0003     YY     -23.0767
        XZ      -0.0000     YZ      -0.0000     ZZ     -20.3245
    Octopole Moments (Debye-Ang^2)
       XXX      -0.0017    XXY      -0.5107    XYY       0.0002
       YYY       1.0678    XXZ       0.0000    XYZ       0.0000
       YYZ       0.0000    XZZ       0.0013    YZZ      -0.4385
       ZZZ       0.0000
    Hexadecapole Moments (Debye-Ang^3)
      XXXX     -88.1062   XXXY       0.0145   XXYY     -31.4871
      XYYY       0.0124   YYYY     -98.1675   XXXZ      -0.0000
      XXYZ      -0.0000   XYYZ       0.0000   YYYZ      -0.0000
      XXZZ     -17.9962   XYZZ       0.0057   YYZZ     -18.9790
      XZZZ      -0.0000   YZZZ      -0.0000   ZZZZ     -15.4270
 -----------------------------------------------------------------
Archival summary:
1\1\centos77-c2\SP\ProcedureUnspecified\BasisUnspecified\31(2)\shihchen\SunJul1220:26:552020SunJul1220:26:552020\0\\#,ProcedureUnspecified,BasisUnspecified,\\0,2\N\O,1,1.21414\O,1,1.30344,2,124.539\O,1,1.30391,2,124.572,3,-180,0\\\@

 Total job time:  13.29s(wall), 63.96s(cpu) 
 Sun Jul 12 20:26:55 2020

        *************************************************************
        *                                                           *
        *  Thank you very much for using Q-Chem.  Have a nice day.  *
        *                                                           *
        *************************************************************


