                  Welcome to Q-Chem
     A Quantum Leap Into The Future Of Chemistry


 Q-Chem 5.3 (devel), Q-Chem, Inc., Pleasanton, CA (2020)

 Yihan Shao,  Zhengting Gan,  E. Epifanovsky,  A. T. B. Gilbert,  M. Wormit,  
 J. Kussmann,  A. W. Lange,  A. Behn,  Jia Deng,  Xintian Feng,  D. Ghosh,  
 M. Goldey,  P. R. Horn,  L. D. Jacobson,  I. Kaliman,  T. Kus,  A. Landau,  
 Jie Liu,  E. I. Proynov,  R. M. Richard,  R. P. Steele,  E. J. Sundstrom,  
 H. L. Woodcock III,  P. M. Zimmerman,  D. Zuev,  B. Alam,  B. Albrecht,  
 E. Alguire,  S. A. Baeppler,  D. Barton,  Z. Benda,  Y. A. Bernard,  
 E. J. Berquist,  K. B. Bravaya,  H. Burton,  K. Carter-Fenk,  D. Casanova,  
 Chun-Min Chang,  Yunqing Chen,  A. Chien,  K. D. Closser,  M. P. Coons,  
 S. Coriani,  S. Dasgupta,  A. L. Dempwolff,  M. Diedenhofen,  Hainam Do,  
 R. G. Edgar,  Po-Tung Fang,  S. Faraji,  S. Fatehi,  Qingguo Feng,  
 J. Fosso-Tande,  J. Gayvert,  Qinghui Ge,  A. Ghysels,  G. Gidofalvi,  
 J. Gomes,  J. Gonthier,  A. Gunina,  D. Hait,  M. W. D. Hanson-Heine,  
 P. H. P. Harbach,  A. W. Hauser,  M. F. Herbst,  J. E. Herr,  
 E. G. Hohenstein,  Z. C. Holden,  Kerwin Hui,  B. C. Huynh,  T.-C. Jagau,  
 Hyunjun Ji,  B. Kaduk,  K. Khistyaev,  Jaehoon Kim,  P. Klunzinger,  K. Koh,  
 D. Kosenkov,  L. Koulias,  T. Kowalczyk,  C. M. Krauter,  A. Kunitsa,  
 Ka Un Lao,  A. Laurent,  K. V. Lawler,  Joonho Lee,  D. Lefrancois,  
 S. Lehtola,  D. S. Levine,  Yi-Pei Li,  You-Sheng Lin,  Fenglai Liu,  
 Kuan-Yu Liu,  E. Livshits,  M. Loipersberger,  A. Luenser,  P. Manohar,  
 E. Mansoor,  S. F. Manzer,  Shan-Ping Mao,  Yuezhi Mao,  N. Mardirossian,  
 A. V. Marenich,  T. Markovich,  L. A. Martinez-Martinez,  S. A. Maurer,  
 N. J. Mayhall,  S. C. McKenzie,  J.-M. Mewes,  P. Morgante,  A. F. Morrison,  
 J. W. Mullinax,  K. Nanda,  T. S. Nguyen-Beck,  R. Olivares-Amaya,  
 K. J. Oosterbaan,  J. A. Parkhill,  S. K. Paul,  F. Pavosevic,  Zheng Pei,  
 T. M. Perrine,  F. Plasser,  P. Pokhilko,  S. Prager,  A. Prociuk,  
 E. Ramos,  B. Rana,  D. R. Rehn,  F. Rob,  M. Scheurer,  M. Schneider,  
 N. Sergueev,  S. M. Sharada,  S. Sharma,  D. W. Small,  T. Stauch,  
 C. J. Stein,  T. Stein,  Yu-Chuan Su,  S. P. Veccham,  Zhen Tao,  
 A. J. W. Thom,  A. Tkatchenko,  T. Tsuchimochi,  N. M. Tubman,  L. Vogt,  
 M. L. Vidal,  O. Vydrov,  M. A. Watson,  J. Wenzel,  M. de Wergifosse,  
 T. A. Wesolowski,  A. White,  J. Witte,  A. Yamada,  Jun Yang,  K. Yao,  
 S. Yeganeh,  S. R. Yost,  Zhi-Qiang You,  A. Zech,  Igor Ying Zhang,  
 Xing Zhang,  Yan Zhao,  Ying Zhu,  B. R. Brooks,  G. K. L. Chan,  
 C. J. Cramer,  M. S. Gordon,  W. J. Hehre,  A. Klamt,  M. W. Schmidt,  
 C. D. Sherrill,  D. G. Truhlar,  A. Aspuru-Guzik,  R. Baer,  A. T. Bell,  
 N. A. Besley,  Jeng-Da Chai,  A. E. DePrince, III,  R. A. DiStasio Jr.,  
 A. Dreuw,  B. D. Dunietz,  T. R. Furlani,  Chao-Ping Hsu,  Yousung Jung,  
 Jing Kong,  D. S. Lambrecht,  WanZhen Liang,  C. Ochsenfeld,  
 V. A. Rassolov,  L. V. Slipchenko,  J. E. Subotnik,  T. Van Voorhis,  
 J. M. Herbert,  A. I. Krylov,  P. M. W. Gill,  M. Head-Gordon

 Contributors to earlier versions of Q-Chem not listed above: 
 R. D. Adamson,  B. Austin,  J. Baker,  G. J. O. Beran,  K. Brandhorst,  
 S. T. Brown,  E. F. C. Byrd,  A. K. Chakraborty,  C.-L. Cheng,  
 Siu Hung Chien,  D. M. Chipman,  D. L. Crittenden,  H. Dachsel,  
 R. J. Doerksen,  A. D. Dutoi,  L. Fusti-Molnar,  W. A. Goddard III,  
 A. Golubeva-Zadorozhnaya,  S. R. Gwaltney,  G. Hawkins,  A. Heyden,  
 S. Hirata,  G. Kedziora,  F. J. Keil,  C. Kelley,  Jihan Kim,  R. A. King,  
 R. Z. Khaliullin,  P. P. Korambath,  W. Kurlancheek,  A. M. Lee,  M. S. Lee,  
 S. V. Levchenko,  Ching Yeh Lin,  D. Liotard,  R. C. Lochan,  I. Lotan,  
 P. E. Maslen,  N. Nair,  D. P. O'Neill,  D. Neuhauser,  E. Neuscamman,  
 C. M. Oana,  R. Olson,  B. Peters,  R. Peverati,  P. A. Pieniazek,  
 Y. M. Rhee,  J. Ritchie,  M. A. Rohrdanz,  E. Rosta,  N. J. Russ,  
 H. F. Schaefer III,  N. E. Schultz,  N. Shenvi,  A. C. Simmonett,  A. Sodt,  
 D. Stuck,  K. S. Thanthiriwatte,  V. Vanovschi,  Tao Wang,  A. Warshel,  
 C. F. Williams,  Q. Wu,  X. Xu,  W. Zhang

 Please cite Q-Chem as follows:
 Y. Shao et al., Mol. Phys. 113, 184-215 (2015)
 DOI: 10.1080/00268976.2014.952696

 Q-Chem 5.3.0 for Intel X86 EM64T Linux

 Parts of Q-Chem use Armadillo 9.800.1 (Horizon Scraper).
 http://arma.sourceforge.net/

 Q-Chem begins on Sun Jul 12 20:16:15 2020  

Host: centos77-c2
0

     Scratch files written to /tmp/28905.centos77-h1/qchem120617//
Processing $rem in /opt/qchem-5.3.0-intel2020u1//config/preferences:
Processing $rem in /home/shihchengli/.qchemrc:

Checking the input file for inconsistencies... 	...done.

--------------------------------------------------------------
User input:
--------------------------------------------------------------
$rem
   JOBTYPE  sp
   EXCHANGE   omegaB97X-D
   BASIS   6-311+G(2df,2pd)
   UNRESTRICTED   True
   max_scf_cycles   250
   geom_opt_max_cycles   1500
   basis2 6-31G*
   scf_algorithm rca_diis
   SYM_IGNORE  TRUE
   print_input   true
   geom_opt_dmax   80
   pop_mulliken false
   XC_GRID 000075000302
$end

$molecule
0 2
N       -0.0092364020     0.1328094087     -0.0000000000
O       0.0096400835     -1.1122925898     0.0000000000
O       -1.1302360575     0.4932646134     0.0000000000
O       1.1298326577     0.4822904898     0.0000000000
$end
--------------------------------------------------------------
 ----------------------------------------------------------------
             Standard Nuclear Orientation (Angstroms)
    I     Atom           X                Y                Z
 ----------------------------------------------------------------
    1      N      -0.0092364020     0.1328094087     0.0000000000
    2      O       0.0096400835    -1.1122925898     0.0000000000
    3      O      -1.1302360575     0.4932646134     0.0000000000
    4      O       1.1298326577     0.4822904898     0.0000000000
 ----------------------------------------------------------------
 Nuclear Repulsion Energy =         123.39949129 hartrees
 There are       16 alpha and       15 beta electrons
 Requested basis set is 6-311+G(2df,2pd)
 There are 32 shells and 136 basis functions

 Total QAlloc Memory Limit   2000 MB
 Mega-Array Size       188 MB
 MEM_STATIC part       192 MB

                       Distance Matrix (Angstroms)
             N (  1)   O (  2)   O (  3)
   O (  2)  1.245245
   O (  3)  1.177526  1.969043
   O (  4)  1.191476  1.948724  2.260095
 
 A cutoff of  1.0D-09 yielded    514 shell pairs
 There are      9483 function pairs (     12539 Cartesian)
 Smallest overlap matrix eigenvalue = 7.95E-04

 Scale SEOQF with 1.000000e-01/1.000000e-01/1.000000e-01

 Standard Electronic Orientation quadrupole field applied
 Nucleus-field energy     =     0.0000000017 hartrees
 Requested basis set is 6-31G(d)
 There are 16 shells and 56 basis functions
 A cutoff of  1.0D-09 yielded    133 shell pairs
 There are      1681 function pairs (      1935 Cartesian)
 Smallest overlap matrix eigenvalue = 3.52E-03
 Guess from superposition of atomic densities
 Warning:  Energy on first SCF cycle will be non-variational
 SAD guess density has 31.000000 electrons
 Long-range K will be added via erf
 Coulomb attenuation parameter = 0.2 bohr**(-1)
 An unrestricted hybrid HF-DFT SCF calculation will be
 performed using Relaxed Constraint Minimization + Pulay DIIS
 Exchange:     0.2220 Hartree-Fock + 1.0000 wB97X-D + LR-HF
 Correlation:  1.0000 wB97X-D
 Using Euler-Maclaurin-Lebedev (75,302) quadrature formula
 Dispersion:   Grimme D
 SCF converges when DIIS error is below 1.0E-04
 using 6 threads for integral computing
 -------------------------------------------------------
 OpenMP Integral computing Module                
 Release: version 1.0, May 2013, Q-Chem Inc. Pittsburgh 
 -------------------------------------------------------
 using 6 threads for integral computing
 -------------------------------------------------------
 OpenMP Integral computing Module                
 Release: version 1.0, May 2013, Q-Chem Inc. Pittsburgh 
 -------------------------------------------------------
 ---------------------------------------
  Cycle       Energy         DIIS Error
 ---------------------------------------
    1    -281.2173542155      1.22E-01
    2    -279.8934003463      2.58E-02
    3    -279.9789579380      3.47E-03
    4    -280.0877135679      2.62E-03
    5    -280.0888047650      5.64E-04 Done RCA. Switching to DIIS
    6    -280.0904486283      6.55E-04
    7    -280.0908160461      2.51E-04
    8    -280.0909576964      1.14E-04
    9    -280.0910454506      8.11E-05 Convergence criterion met
 ---------------------------------------
 <S^2> = 0.7542
 SCF time:  CPU 15.87 s  wall 3.94 s
 SCF   energy in the small basis set = -280.09104545
 Total energy in the small basis set = -280.09104545
 ----------------------------------------------------
  Cycle       Energy    
 ----------------------------------------------------
    1     -28.4413401029     -2.84E+01
 Long-range K will be added via erf
 Coulomb attenuation parameter = 0.2 bohr**(-1)
 An unrestricted hybrid HF-DFT SCF calculation will be
 performed using Relaxed Constraint Minimization + Pulay DIIS
 Exchange:     0.2220 Hartree-Fock + 1.0000 wB97X-D + LR-HF
 Correlation:  1.0000 wB97X-D
 Using Euler-Maclaurin-Lebedev (75,302) quadrature formula
 Dispersion:   Grimme D
 SCF converges when DIIS error is below 1.0E-05
 Basis2 calculation detected. Using small basis as guess for larger.
 SCFMinFind is unable to tell whether the solution found is close.
 Resetting ReadMinima to 0 and attempting to follow guess.
 SCFMinFind following SCF Guess.
 using 6 threads for integral computing
 -------------------------------------------------------
 OpenMP Integral computing Module                
 Release: version 1.0, May 2013, Q-Chem Inc. Pittsburgh 
 -------------------------------------------------------
 using 6 threads for integral computing
 -------------------------------------------------------
 OpenMP Integral computing Module                
 Release: version 1.0, May 2013, Q-Chem Inc. Pittsburgh 
 -------------------------------------------------------
 ---------------------------------------
  Cycle       Energy         DIIS Error
 ---------------------------------------
    1    -280.1559530084      1.00E-02
    2    -280.1554170098      5.63E-03
    3    -280.1729400244      1.54E-03
    4    -280.1969129394      1.42E-03
    5    -280.1986142576      2.35E-04 Done RCA. Switching to DIIS
    6    -280.2012826832      2.06E-04
    7    -280.2014824656      9.34E-05
    8    -280.2015508753      3.81E-05
    9    -280.2015850177      2.75E-05
   10    -280.2015934177      4.54E-06 Convergence criterion met
 ---------------------------------------
 <S^2> = 0.7553
 SCF time:  CPU 46.26 s  wall 8.33 s
 SCF   energy in the final basis set = -280.20159342
 Total energy in the final basis set = -280.20159342
 
 --------------------------------------------------------------
 
                    Orbital Energies (a.u.)
 --------------------------------------------------------------
 
 Alpha MOs
 -- Occupied --
-19.3920 -19.3639 -19.3607 -14.7844  -1.5002  -1.2975  -1.2217  -0.7856
 -0.7515  -0.7186  -0.7040  -0.5798  -0.4872  -0.4853  -0.4839  -0.4501
 -- Virtual --
 -0.0166   0.0852   0.1372   0.1393   0.1559   0.2150   0.2343   0.2459
  0.2588   0.2602   0.2711   0.2961   0.3187   0.3364   0.3485   0.3585
  0.3797   0.4316   0.4453   0.5697   0.7510   0.7563   0.9055   0.9177
  0.9648   0.9890   1.0025   1.0293   1.0398   1.0559   1.0728   1.0944
  1.1416   1.1648   1.1816   1.3339   1.3545   1.4516   1.5092   1.5328
  1.5774   1.6055   1.6086   1.6387   1.7508   1.9130   1.9637   2.0627
  2.1400   2.1640   2.4258   2.4554   2.4753   2.5517   2.6303   2.7724
  3.6215   3.6314   3.6378   3.6996   3.7731   3.9137   4.0518   4.2336
  4.3031   4.4058   4.4338   4.4504   4.6067   4.6375   4.6839   4.9704
  4.9707   4.9763   4.9900   5.0239   5.0286   5.0554   5.0779   5.0843
  5.1172   5.1310   5.1827   5.2202   5.3312   5.3467   5.3522   5.4332
  5.5203   5.7264   5.7801   5.8488   6.3035   6.4251   6.4457   6.6278
  6.6851   6.6881   6.7360   6.7747   6.8068   6.8754   6.8993   7.0381
  7.0813   7.1346   7.2229   7.3132   7.3217   7.3333   7.3716   7.5152
  7.6884   7.9235   8.0682   8.6505  36.3022  50.0490  50.2734  50.3178
 
 Beta MOs
 -- Occupied --
-19.3735 -19.3585 -19.3570 -14.7852  -1.4879  -1.2872  -1.1861  -0.7668
 -0.7485  -0.6952  -0.6850  -0.4994  -0.4796  -0.4653  -0.4495
 -- Virtual --
 -0.1372  -0.0134   0.0853   0.1373   0.1391   0.1556   0.2161   0.2337
  0.2479   0.2584   0.2602   0.2746   0.3048   0.3184   0.3383   0.3482
  0.3610   0.3846   0.4334   0.4482   0.5784   0.7524   0.7555   0.9099
  0.9253   0.9672   0.9913   1.0268   1.0319   1.0429   1.0594   1.0796
  1.1003   1.1497   1.1837   1.1880   1.3461   1.3667   1.4612   1.5179
  1.5508   1.5845   1.6210   1.6326   1.6492   1.7558   1.9204   1.9663
  2.0799   2.1677   2.1680   2.4349   2.4583   2.4814   2.5594   2.6404
  2.7790   3.6200   3.6337   3.6393   3.7002   3.7752   3.9234   4.0525
  4.2387   4.3124   4.4164   4.4341   4.4543   4.6133   4.6377   4.6935
  4.9908   4.9937   5.0249   5.0335   5.0356   5.0536   5.0763   5.0941
  5.1153   5.1334   5.1427   5.1979   5.2333   5.3574   5.3579   5.3694
  5.4493   5.5359   5.7406   5.7869   5.8587   6.3133   6.4506   6.4586
  6.6457   6.7267   6.7353   6.7556   6.8173   6.8301   6.9014   6.9256
  7.0498   7.0857   7.1483   7.2285   7.3267   7.3471   7.3631   7.4060
  7.5308   7.6948   7.9356   8.0733   8.6571  36.3015  50.0654  50.2806
 50.3215
 --------------------------------------------------------------
 
 -----------------------------------------------------------------
                    Cartesian Multipole Moments
 -----------------------------------------------------------------
    Charge (ESU x 10^10)
                -0.0000
    Dipole Moment (Debye)
         X      -0.0237      Y      -0.0943      Z      -0.0000
       Tot       0.0973
    Quadrupole Moments (Debye-Ang)
        XX     -23.0679     XY       0.0637     YY     -22.1770
        XZ      -0.0000     YZ      -0.0000     ZZ     -19.9105
    Octopole Moments (Debye-Ang^2)
       XXX       0.0105    XXY      -1.6196    XYY      -0.0104
       YYY      -0.1284    XXZ      -0.0000    XYZ      -0.0000
       YYZ      -0.0000    XZZ      -0.0717    YZZ       0.2734
       ZZZ      -0.0000
    Hexadecapole Moments (Debye-Ang^3)
      XXXX     -97.2877   XXXY       0.4098   XXYY     -28.7446
      XYYY       0.5308   YYYY     -72.2189   XXXZ      -0.0000
      XXYZ      -0.0000   XYYZ      -0.0000   YYYZ      -0.0000
      XXZZ     -18.6827   XYZZ       0.1122   YYZZ     -14.8023
      XZZZ      -0.0000   YZZZ      -0.0000   ZZZZ     -14.7747
 -----------------------------------------------------------------
Archival summary:
1\1\centos77-c2\SP\ProcedureUnspecified\BasisUnspecified\31(2)\shihchen\SunJul1220:16:302020SunJul1220:16:302020\0\\#,ProcedureUnspecified,BasisUnspecified,\\0,2\N\O,1,1.17753\O,1,1.19148,2,145.118\O,1,1.24525,2,108.694,3,-180,0\\\@

 Total job time:  14.32s(wall), 65.85s(cpu) 
 Sun Jul 12 20:16:30 2020

        *************************************************************
        *                                                           *
        *  Thank you very much for using Q-Chem.  Have a nice day.  *
        *                                                           *
        *************************************************************


