                  Welcome to Q-Chem
     A Quantum Leap Into The Future Of Chemistry


 Q-Chem 5.3 (devel), Q-Chem, Inc., Pleasanton, CA (2020)

 Yihan Shao,  Zhengting Gan,  E. Epifanovsky,  A. T. B. Gilbert,  M. Wormit,  
 J. Kussmann,  A. W. Lange,  A. Behn,  Jia Deng,  Xintian Feng,  D. Ghosh,  
 M. Goldey,  P. R. Horn,  L. D. Jacobson,  I. Kaliman,  T. Kus,  A. Landau,  
 Jie Liu,  E. I. Proynov,  R. M. Richard,  R. P. Steele,  E. J. Sundstrom,  
 H. L. Woodcock III,  P. M. Zimmerman,  D. Zuev,  B. Alam,  B. Albrecht,  
 E. Alguire,  S. A. Baeppler,  D. Barton,  Z. Benda,  Y. A. Bernard,  
 E. J. Berquist,  K. B. Bravaya,  H. Burton,  K. Carter-Fenk,  D. Casanova,  
 Chun-Min Chang,  Yunqing Chen,  A. Chien,  K. D. Closser,  M. P. Coons,  
 S. Coriani,  S. Dasgupta,  A. L. Dempwolff,  M. Diedenhofen,  Hainam Do,  
 R. G. Edgar,  Po-Tung Fang,  S. Faraji,  S. Fatehi,  Qingguo Feng,  
 J. Fosso-Tande,  J. Gayvert,  Qinghui Ge,  A. Ghysels,  G. Gidofalvi,  
 J. Gomes,  J. Gonthier,  A. Gunina,  D. Hait,  M. W. D. Hanson-Heine,  
 P. H. P. Harbach,  A. W. Hauser,  M. F. Herbst,  J. E. Herr,  
 E. G. Hohenstein,  Z. C. Holden,  Kerwin Hui,  B. C. Huynh,  T.-C. Jagau,  
 Hyunjun Ji,  B. Kaduk,  K. Khistyaev,  Jaehoon Kim,  P. Klunzinger,  K. Koh,  
 D. Kosenkov,  L. Koulias,  T. Kowalczyk,  C. M. Krauter,  A. Kunitsa,  
 Ka Un Lao,  A. Laurent,  K. V. Lawler,  Joonho Lee,  D. Lefrancois,  
 S. Lehtola,  D. S. Levine,  Yi-Pei Li,  You-Sheng Lin,  Fenglai Liu,  
 Kuan-Yu Liu,  E. Livshits,  M. Loipersberger,  A. Luenser,  P. Manohar,  
 E. Mansoor,  S. F. Manzer,  Shan-Ping Mao,  Yuezhi Mao,  N. Mardirossian,  
 A. V. Marenich,  T. Markovich,  L. A. Martinez-Martinez,  S. A. Maurer,  
 N. J. Mayhall,  S. C. McKenzie,  J.-M. Mewes,  P. Morgante,  A. F. Morrison,  
 J. W. Mullinax,  K. Nanda,  T. S. Nguyen-Beck,  R. Olivares-Amaya,  
 K. J. Oosterbaan,  J. A. Parkhill,  S. K. Paul,  F. Pavosevic,  Zheng Pei,  
 T. M. Perrine,  F. Plasser,  P. Pokhilko,  S. Prager,  A. Prociuk,  
 E. Ramos,  B. Rana,  D. R. Rehn,  F. Rob,  M. Scheurer,  M. Schneider,  
 N. Sergueev,  S. M. Sharada,  S. Sharma,  D. W. Small,  T. Stauch,  
 C. J. Stein,  T. Stein,  Yu-Chuan Su,  S. P. Veccham,  Zhen Tao,  
 A. J. W. Thom,  A. Tkatchenko,  T. Tsuchimochi,  N. M. Tubman,  L. Vogt,  
 M. L. Vidal,  O. Vydrov,  M. A. Watson,  J. Wenzel,  M. de Wergifosse,  
 T. A. Wesolowski,  A. White,  J. Witte,  A. Yamada,  Jun Yang,  K. Yao,  
 S. Yeganeh,  S. R. Yost,  Zhi-Qiang You,  A. Zech,  Igor Ying Zhang,  
 Xing Zhang,  Yan Zhao,  Ying Zhu,  B. R. Brooks,  G. K. L. Chan,  
 C. J. Cramer,  M. S. Gordon,  W. J. Hehre,  A. Klamt,  M. W. Schmidt,  
 C. D. Sherrill,  D. G. Truhlar,  A. Aspuru-Guzik,  R. Baer,  A. T. Bell,  
 N. A. Besley,  Jeng-Da Chai,  A. E. DePrince, III,  R. A. DiStasio Jr.,  
 A. Dreuw,  B. D. Dunietz,  T. R. Furlani,  Chao-Ping Hsu,  Yousung Jung,  
 Jing Kong,  D. S. Lambrecht,  WanZhen Liang,  C. Ochsenfeld,  
 V. A. Rassolov,  L. V. Slipchenko,  J. E. Subotnik,  T. Van Voorhis,  
 J. M. Herbert,  A. I. Krylov,  P. M. W. Gill,  M. Head-Gordon

 Contributors to earlier versions of Q-Chem not listed above: 
 R. D. Adamson,  B. Austin,  J. Baker,  G. J. O. Beran,  K. Brandhorst,  
 S. T. Brown,  E. F. C. Byrd,  A. K. Chakraborty,  C.-L. Cheng,  
 Siu Hung Chien,  D. M. Chipman,  D. L. Crittenden,  H. Dachsel,  
 R. J. Doerksen,  A. D. Dutoi,  L. Fusti-Molnar,  W. A. Goddard III,  
 A. Golubeva-Zadorozhnaya,  S. R. Gwaltney,  G. Hawkins,  A. Heyden,  
 S. Hirata,  G. Kedziora,  F. J. Keil,  C. Kelley,  Jihan Kim,  R. A. King,  
 R. Z. Khaliullin,  P. P. Korambath,  W. Kurlancheek,  A. M. Lee,  M. S. Lee,  
 S. V. Levchenko,  Ching Yeh Lin,  D. Liotard,  R. C. Lochan,  I. Lotan,  
 P. E. Maslen,  N. Nair,  D. P. O'Neill,  D. Neuhauser,  E. Neuscamman,  
 C. M. Oana,  R. Olson,  B. Peters,  R. Peverati,  P. A. Pieniazek,  
 Y. M. Rhee,  J. Ritchie,  M. A. Rohrdanz,  E. Rosta,  N. J. Russ,  
 H. F. Schaefer III,  N. E. Schultz,  N. Shenvi,  A. C. Simmonett,  A. Sodt,  
 D. Stuck,  K. S. Thanthiriwatte,  V. Vanovschi,  Tao Wang,  A. Warshel,  
 C. F. Williams,  Q. Wu,  X. Xu,  W. Zhang

 Please cite Q-Chem as follows:
 Y. Shao et al., Mol. Phys. 113, 184-215 (2015)
 DOI: 10.1080/00268976.2014.952696

 Q-Chem 5.3.0 for Intel X86 EM64T Linux

 Parts of Q-Chem use Armadillo 9.800.1 (Horizon Scraper).
 http://arma.sourceforge.net/

 Q-Chem begins on Sun Jul 12 20:14:23 2020  

Host: centos77-c2
0

     Scratch files written to /tmp/28905.centos77-h1/qchem120049//
Processing $rem in /opt/qchem-5.3.0-intel2020u1//config/preferences:
Processing $rem in /home/shihchengli/.qchemrc:

Checking the input file for inconsistencies... 	...done.

--------------------------------------------------------------
User input:
--------------------------------------------------------------
$rem
   JOBTYPE  sp
   EXCHANGE   omegaB97X-D
   BASIS   6-311+G(2df,2pd)
   UNRESTRICTED   True
   max_scf_cycles   250
   geom_opt_max_cycles   1500
   basis2 6-31G*
   scf_algorithm rca_diis
   SYM_IGNORE  TRUE
   print_input   true
   geom_opt_dmax   80
   pop_mulliken false
   XC_GRID 000075000302
$end

$molecule
0 2
N       0.0016768953     -0.0868529420     0.0000000000
O       -0.0012134874     -1.2702494436     -0.0000000000
O       -0.9930747179     0.6760547953     -0.0000000000
O       0.9926115917     0.6771195123     -0.0000000000
$end
--------------------------------------------------------------
 ----------------------------------------------------------------
             Standard Nuclear Orientation (Angstroms)
    I     Atom           X                Y                Z
 ----------------------------------------------------------------
    1      N       0.0016768953    -0.0868529420     0.0000000000
    2      O      -0.0012134874    -1.2702494436     0.0000000000
    3      O      -0.9930747179     0.6760547953     0.0000000000
    4      O       0.9926115917     0.6771195123     0.0000000000
 ----------------------------------------------------------------
 Nuclear Repulsion Energy =         120.41370006 hartrees
 There are       16 alpha and       15 beta electrons
 Requested basis set is 6-311+G(2df,2pd)
 There are 32 shells and 136 basis functions

 Total QAlloc Memory Limit   2000 MB
 Mega-Array Size       188 MB
 MEM_STATIC part       192 MB

                       Distance Matrix (Angstroms)
             N (  1)   O (  2)   O (  3)
   O (  2)  1.183400
   O (  3)  1.253618  2.184465
   O (  4)  1.251242  2.186306  1.985687
 
 A cutoff of  1.0D-09 yielded    513 shell pairs
 There are      9497 function pairs (     12559 Cartesian)
 Smallest overlap matrix eigenvalue = 1.02E-03

 Scale SEOQF with 1.000000e-01/1.000000e-01/1.000000e-01

 Standard Electronic Orientation quadrupole field applied
 Nucleus-field energy     =     0.0000000020 hartrees
 Requested basis set is 6-31G(d)
 There are 16 shells and 56 basis functions
 A cutoff of  1.0D-09 yielded    133 shell pairs
 There are      1681 function pairs (      1935 Cartesian)
 Smallest overlap matrix eigenvalue = 5.18E-03
 Guess from superposition of atomic densities
 Warning:  Energy on first SCF cycle will be non-variational
 SAD guess density has 31.000000 electrons
 Long-range K will be added via erf
 Coulomb attenuation parameter = 0.2 bohr**(-1)
 An unrestricted hybrid HF-DFT SCF calculation will be
 performed using Relaxed Constraint Minimization + Pulay DIIS
 Exchange:     0.2220 Hartree-Fock + 1.0000 wB97X-D + LR-HF
 Correlation:  1.0000 wB97X-D
 Using Euler-Maclaurin-Lebedev (75,302) quadrature formula
 Dispersion:   Grimme D
 SCF converges when DIIS error is below 1.0E-04
 using 6 threads for integral computing
 -------------------------------------------------------
 OpenMP Integral computing Module                
 Release: version 1.0, May 2013, Q-Chem Inc. Pittsburgh 
 -------------------------------------------------------
 using 6 threads for integral computing
 -------------------------------------------------------
 OpenMP Integral computing Module                
 Release: version 1.0, May 2013, Q-Chem Inc. Pittsburgh 
 -------------------------------------------------------
 ---------------------------------------
  Cycle       Energy         DIIS Error
 ---------------------------------------
    1    -281.0149334068      1.14E-01
    2    -279.9105537573      2.63E-02
    3    -279.9969923969      4.34E-03
    4    -280.1100205428      4.35E-03
    5    -280.1124214897      6.60E-04 Done RCA. Switching to DIIS
    6    -280.1155738549      6.49E-04
    7    -280.1157719346      1.03E-04
    8    -280.1158210735      8.44E-05 Convergence criterion met
 ---------------------------------------
 <S^2> = 0.7558
 SCF time:  CPU 13.28 s  wall 2.58 s
 SCF   energy in the small basis set = -280.11582107
 Total energy in the small basis set = -280.11582107
 ----------------------------------------------------
  Cycle       Energy    
 ----------------------------------------------------
    1     -28.3649269628     -2.84E+01
 Long-range K will be added via erf
 Coulomb attenuation parameter = 0.2 bohr**(-1)
 An unrestricted hybrid HF-DFT SCF calculation will be
 performed using Relaxed Constraint Minimization + Pulay DIIS
 Exchange:     0.2220 Hartree-Fock + 1.0000 wB97X-D + LR-HF
 Correlation:  1.0000 wB97X-D
 Using Euler-Maclaurin-Lebedev (75,302) quadrature formula
 Dispersion:   Grimme D
 SCF converges when DIIS error is below 1.0E-05
 Basis2 calculation detected. Using small basis as guess for larger.
 SCFMinFind is unable to tell whether the solution found is close.
 Resetting ReadMinima to 0 and attempting to follow guess.
 SCFMinFind following SCF Guess.
 using 6 threads for integral computing
 -------------------------------------------------------
 OpenMP Integral computing Module                
 Release: version 1.0, May 2013, Q-Chem Inc. Pittsburgh 
 -------------------------------------------------------
 using 6 threads for integral computing
 -------------------------------------------------------
 OpenMP Integral computing Module                
 Release: version 1.0, May 2013, Q-Chem Inc. Pittsburgh 
 -------------------------------------------------------
 ---------------------------------------
  Cycle       Energy         DIIS Error
 ---------------------------------------
    1    -280.1841751473      9.90E-03
    2    -280.1943675349      4.65E-03
    3    -280.2057672034      1.23E-03
    4    -280.2218989884      1.19E-03
    5    -280.2228388546      1.68E-04 Done RCA. Switching to DIIS
    6    -280.2241534578      1.20E-04
    7    -280.2242918896      3.61E-05
    8    -280.2243564503      3.74E-05
    9    -280.2243745282      1.67E-05
   10    -280.2243802372      2.83E-06 Convergence criterion met
 ---------------------------------------
 <S^2> = 0.7576
 SCF time:  CPU 46.40 s  wall 8.95 s
 SCF   energy in the final basis set = -280.22438024
 Total energy in the final basis set = -280.22438024
 
 --------------------------------------------------------------
 
                    Orbital Energies (a.u.)
 --------------------------------------------------------------
 
 Alpha MOs
 -- Occupied --
-19.3894 -19.3887 -19.3601 -14.7856  -1.4728  -1.2764  -1.2204  -0.7918
 -0.7358  -0.7132  -0.7048  -0.5605  -0.5020  -0.4860  -0.4854  -0.4590
 -- Virtual --
 -0.0292   0.0853   0.1370   0.1387   0.1576   0.2207   0.2246   0.2413
  0.2565   0.2590   0.2602   0.3255   0.3265   0.3323   0.3477   0.3501
  0.3543   0.4365   0.4438   0.4896   0.7600   0.7800   0.8608   0.9081
  0.9704   0.9914   1.0252   1.0413   1.0539   1.0585   1.0749   1.1105
  1.1159   1.1528   1.1796   1.3306   1.3585   1.4882   1.5139   1.5343
  1.5738   1.5751   1.6157   1.6438   1.7629   1.7990   1.9429   1.9564
  2.0730   2.2146   2.3499   2.4184   2.4454   2.5145   2.6820   2.7625
  3.6248   3.6503   3.6596   3.7027   3.7523   3.9672   3.9756   4.2218
  4.3655   4.3783   4.4092   4.5331   4.5474   4.6233   4.6383   4.9667
  4.9816   4.9890   5.0093   5.0175   5.0186   5.0306   5.0746   5.1035
  5.1048   5.1274   5.1512   5.1530   5.2362   5.2476   5.3988   5.4295
  5.5005   5.6182   5.7413   5.8034   6.0772   6.2066   6.3856   6.5384
  6.6374   6.6808   6.7414   6.7600   6.7928   6.7989   6.8012   6.8443
  7.1222   7.1505   7.1637   7.1923   7.2295   7.2943   7.5577   7.5688
  7.8258   7.8663   8.0234   8.0545  36.1647  50.0194  50.1607  50.2458
 
 Beta MOs
 -- Occupied --
-19.3758 -19.3754 -19.3593 -14.7864  -1.4612  -1.2630  -1.1871  -0.7721
 -0.7332  -0.6931  -0.6840  -0.4794  -0.4729  -0.4704  -0.4653
 -- Virtual --
 -0.1552  -0.0259   0.0858   0.1380   0.1382   0.1575   0.2224   0.2276
  0.2429   0.2584   0.2605   0.2629   0.3247   0.3277   0.3379   0.3474
  0.3502   0.3590   0.4398   0.4465   0.5014   0.7594   0.7819   0.8645
  0.9183   0.9722   0.9940   1.0294   1.0558   1.0618   1.0642   1.0812
  1.1120   1.1184   1.1807   1.1822   1.3457   1.3617   1.5036   1.5369
  1.5392   1.5801   1.5860   1.6388   1.6556   1.7726   1.8065   1.9520
  1.9592   2.0992   2.2180   2.3540   2.4300   2.4548   2.5167   2.6950
  2.7711   3.6233   3.6513   3.6609   3.7031   3.7548   3.9762   3.9768
  4.2273   4.3760   4.3855   4.4148   4.5390   4.5469   4.6305   4.6386
  4.9890   5.0069   5.0299   5.0336   5.0394   5.0481   5.0539   5.0960
  5.1163   5.1235   5.1433   5.1551   5.1730   5.2570   5.2807   5.4174
  5.4345   5.5186   5.6319   5.7498   5.8111   6.0926   6.2138   6.4189
  6.5465   6.6670   6.7204   6.7603   6.8023   6.8081   6.8176   6.8354
  6.8642   7.1582   7.1590   7.1762   7.2027   7.2369   7.3332   7.5732
  7.5933   7.8322   7.8824   8.0335   8.0594  36.1639  50.0323  50.1735
 50.2465
 --------------------------------------------------------------
 
 -----------------------------------------------------------------
                    Cartesian Multipole Moments
 -----------------------------------------------------------------
    Charge (ESU x 10^10)
                -0.0000
    Dipole Moment (Debye)
         X      -0.0052      Y       0.0255      Z       0.0000
       Tot       0.0261
    Quadrupole Moments (Debye-Ang)
        XX     -22.0778     XY      -0.0041     YY     -23.1522
        XZ       0.0000     YZ       0.0000     ZZ     -20.0550
    Octopole Moments (Debye-Ang^2)
       XXX      -0.0264    XXY      -0.5847    XYY      -0.0045
       YYY       1.5540    XXZ       0.0000    XYZ       0.0000
       YYZ       0.0000    XZZ       0.0064    YZZ      -0.3632
       ZZZ       0.0000
    Hexadecapole Moments (Debye-Ang^3)
      XXXX     -77.9368   XXXY      -0.0348   XXYY     -29.6721
      XYYY      -0.0269   YYYY     -97.7055   XXXZ       0.0000
      XXYZ       0.0000   XYYZ       0.0000   YYYZ       0.0000
      XXZZ     -16.0274   XYZZ      -0.0062   YYZZ     -18.7443
      XZZZ       0.0000   YZZZ       0.0000   ZZZZ     -14.9917
 -----------------------------------------------------------------
Archival summary:
1\1\centos77-c2\SP\ProcedureUnspecified\BasisUnspecified\31(2)\shihchen\SunJul1220:14:362020SunJul1220:14:362020\0\\#,ProcedureUnspecified,BasisUnspecified,\\0,2\N\O,1,1.1834\O,1,1.25124,2,127.771\O,1,1.25362,2,127.346,3,-180,0\\\@

 Total job time:  12.73s(wall), 62.98s(cpu) 
 Sun Jul 12 20:14:36 2020

        *************************************************************
        *                                                           *
        *  Thank you very much for using Q-Chem.  Have a nice day.  *
        *                                                           *
        *************************************************************


