                  Welcome to Q-Chem
     A Quantum Leap Into The Future Of Chemistry


 Q-Chem 5.3 (devel), Q-Chem, Inc., Pleasanton, CA (2020)

 Yihan Shao,  Zhengting Gan,  E. Epifanovsky,  A. T. B. Gilbert,  M. Wormit,  
 J. Kussmann,  A. W. Lange,  A. Behn,  Jia Deng,  Xintian Feng,  D. Ghosh,  
 M. Goldey,  P. R. Horn,  L. D. Jacobson,  I. Kaliman,  T. Kus,  A. Landau,  
 Jie Liu,  E. I. Proynov,  R. M. Richard,  R. P. Steele,  E. J. Sundstrom,  
 H. L. Woodcock III,  P. M. Zimmerman,  D. Zuev,  B. Alam,  B. Albrecht,  
 E. Alguire,  S. A. Baeppler,  D. Barton,  Z. Benda,  Y. A. Bernard,  
 E. J. Berquist,  K. B. Bravaya,  H. Burton,  K. Carter-Fenk,  D. Casanova,  
 Chun-Min Chang,  Yunqing Chen,  A. Chien,  K. D. Closser,  M. P. Coons,  
 S. Coriani,  S. Dasgupta,  A. L. Dempwolff,  M. Diedenhofen,  Hainam Do,  
 R. G. Edgar,  Po-Tung Fang,  S. Faraji,  S. Fatehi,  Qingguo Feng,  
 J. Fosso-Tande,  J. Gayvert,  Qinghui Ge,  A. Ghysels,  G. Gidofalvi,  
 J. Gomes,  J. Gonthier,  A. Gunina,  D. Hait,  M. W. D. Hanson-Heine,  
 P. H. P. Harbach,  A. W. Hauser,  M. F. Herbst,  J. E. Herr,  
 E. G. Hohenstein,  Z. C. Holden,  Kerwin Hui,  B. C. Huynh,  T.-C. Jagau,  
 Hyunjun Ji,  B. Kaduk,  K. Khistyaev,  Jaehoon Kim,  P. Klunzinger,  K. Koh,  
 D. Kosenkov,  L. Koulias,  T. Kowalczyk,  C. M. Krauter,  A. Kunitsa,  
 Ka Un Lao,  A. Laurent,  K. V. Lawler,  Joonho Lee,  D. Lefrancois,  
 S. Lehtola,  D. S. Levine,  Yi-Pei Li,  You-Sheng Lin,  Fenglai Liu,  
 Kuan-Yu Liu,  E. Livshits,  M. Loipersberger,  A. Luenser,  P. Manohar,  
 E. Mansoor,  S. F. Manzer,  Shan-Ping Mao,  Yuezhi Mao,  N. Mardirossian,  
 A. V. Marenich,  T. Markovich,  L. A. Martinez-Martinez,  S. A. Maurer,  
 N. J. Mayhall,  S. C. McKenzie,  J.-M. Mewes,  P. Morgante,  A. F. Morrison,  
 J. W. Mullinax,  K. Nanda,  T. S. Nguyen-Beck,  R. Olivares-Amaya,  
 K. J. Oosterbaan,  J. A. Parkhill,  S. K. Paul,  F. Pavosevic,  Zheng Pei,  
 T. M. Perrine,  F. Plasser,  P. Pokhilko,  S. Prager,  A. Prociuk,  
 E. Ramos,  B. Rana,  D. R. Rehn,  F. Rob,  M. Scheurer,  M. Schneider,  
 N. Sergueev,  S. M. Sharada,  S. Sharma,  D. W. Small,  T. Stauch,  
 C. J. Stein,  T. Stein,  Yu-Chuan Su,  S. P. Veccham,  Zhen Tao,  
 A. J. W. Thom,  A. Tkatchenko,  T. Tsuchimochi,  N. M. Tubman,  L. Vogt,  
 M. L. Vidal,  O. Vydrov,  M. A. Watson,  J. Wenzel,  M. de Wergifosse,  
 T. A. Wesolowski,  A. White,  J. Witte,  A. Yamada,  Jun Yang,  K. Yao,  
 S. Yeganeh,  S. R. Yost,  Zhi-Qiang You,  A. Zech,  Igor Ying Zhang,  
 Xing Zhang,  Yan Zhao,  Ying Zhu,  B. R. Brooks,  G. K. L. Chan,  
 C. J. Cramer,  M. S. Gordon,  W. J. Hehre,  A. Klamt,  M. W. Schmidt,  
 C. D. Sherrill,  D. G. Truhlar,  A. Aspuru-Guzik,  R. Baer,  A. T. Bell,  
 N. A. Besley,  Jeng-Da Chai,  A. E. DePrince, III,  R. A. DiStasio Jr.,  
 A. Dreuw,  B. D. Dunietz,  T. R. Furlani,  Chao-Ping Hsu,  Yousung Jung,  
 Jing Kong,  D. S. Lambrecht,  WanZhen Liang,  C. Ochsenfeld,  
 V. A. Rassolov,  L. V. Slipchenko,  J. E. Subotnik,  T. Van Voorhis,  
 J. M. Herbert,  A. I. Krylov,  P. M. W. Gill,  M. Head-Gordon

 Contributors to earlier versions of Q-Chem not listed above: 
 R. D. Adamson,  B. Austin,  J. Baker,  G. J. O. Beran,  K. Brandhorst,  
 S. T. Brown,  E. F. C. Byrd,  A. K. Chakraborty,  C.-L. Cheng,  
 Siu Hung Chien,  D. M. Chipman,  D. L. Crittenden,  H. Dachsel,  
 R. J. Doerksen,  A. D. Dutoi,  L. Fusti-Molnar,  W. A. Goddard III,  
 A. Golubeva-Zadorozhnaya,  S. R. Gwaltney,  G. Hawkins,  A. Heyden,  
 S. Hirata,  G. Kedziora,  F. J. Keil,  C. Kelley,  Jihan Kim,  R. A. King,  
 R. Z. Khaliullin,  P. P. Korambath,  W. Kurlancheek,  A. M. Lee,  M. S. Lee,  
 S. V. Levchenko,  Ching Yeh Lin,  D. Liotard,  R. C. Lochan,  I. Lotan,  
 P. E. Maslen,  N. Nair,  D. P. O'Neill,  D. Neuhauser,  E. Neuscamman,  
 C. M. Oana,  R. Olson,  B. Peters,  R. Peverati,  P. A. Pieniazek,  
 Y. M. Rhee,  J. Ritchie,  M. A. Rohrdanz,  E. Rosta,  N. J. Russ,  
 H. F. Schaefer III,  N. E. Schultz,  N. Shenvi,  A. C. Simmonett,  A. Sodt,  
 D. Stuck,  K. S. Thanthiriwatte,  V. Vanovschi,  Tao Wang,  A. Warshel,  
 C. F. Williams,  Q. Wu,  X. Xu,  W. Zhang

 Please cite Q-Chem as follows:
 Y. Shao et al., Mol. Phys. 113, 184-215 (2015)
 DOI: 10.1080/00268976.2014.952696

 Q-Chem 5.3.0 for Intel X86 EM64T Linux

 Parts of Q-Chem use Armadillo 9.800.1 (Horizon Scraper).
 http://arma.sourceforge.net/

 Q-Chem begins on Sun Jul 12 20:17:07 2020  

Host: centos77-c2
0

     Scratch files written to /tmp/28905.centos77-h1/qchem120831//
Processing $rem in /opt/qchem-5.3.0-intel2020u1//config/preferences:
Processing $rem in /home/shihchengli/.qchemrc:

Checking the input file for inconsistencies... 	...done.

--------------------------------------------------------------
User input:
--------------------------------------------------------------
$rem
   JOBTYPE  sp
   EXCHANGE   omegaB97X-D
   BASIS   6-311+G(2df,2pd)
   UNRESTRICTED   True
   max_scf_cycles   250
   geom_opt_max_cycles   1500
   basis2 6-31G*
   scf_algorithm rca_diis
   SYM_IGNORE  TRUE
   print_input   true
   geom_opt_dmax   80
   pop_mulliken false
   XC_GRID 000075000302
$end

$molecule
0 2
N       -0.0522925540     -0.0526139880     0.0000000000
O       0.0415399964     -1.2423405325     -0.0000000000
O       -1.0200778630     0.6660300862     -0.0000000000
O       1.0308307024     0.6249963562     -0.0000000000
$end
--------------------------------------------------------------
 ----------------------------------------------------------------
             Standard Nuclear Orientation (Angstroms)
    I     Atom           X                Y                Z
 ----------------------------------------------------------------
    1      N      -0.0522925540    -0.0526139880     0.0000000000
    2      O       0.0415399964    -1.2423405325     0.0000000000
    3      O      -1.0200778630     0.6660300862     0.0000000000
    4      O       1.0308307024     0.6249963562     0.0000000000
 ----------------------------------------------------------------
 Nuclear Repulsion Energy =         120.65445599 hartrees
 There are       16 alpha and       15 beta electrons
 Requested basis set is 6-311+G(2df,2pd)
 There are 32 shells and 136 basis functions

 Total QAlloc Memory Limit   2000 MB
 Mega-Array Size       188 MB
 MEM_STATIC part       192 MB

                       Distance Matrix (Angstroms)
             N (  1)   O (  2)   O (  3)
   O (  2)  1.193421
   O (  3)  1.205428  2.183784
   O (  4)  1.277620  2.113207  2.051319
 
 A cutoff of  1.0D-09 yielded    512 shell pairs
 There are      9503 function pairs (     12563 Cartesian)
 Smallest overlap matrix eigenvalue = 1.02E-03

 Scale SEOQF with 1.000000e-01/1.000000e-01/1.000000e-01

 Standard Electronic Orientation quadrupole field applied
 Nucleus-field energy     =     0.0000000020 hartrees
 Requested basis set is 6-31G(d)
 There are 16 shells and 56 basis functions
 A cutoff of  1.0D-09 yielded    133 shell pairs
 There are      1681 function pairs (      1935 Cartesian)
 Smallest overlap matrix eigenvalue = 5.03E-03
 Guess from superposition of atomic densities
 Warning:  Energy on first SCF cycle will be non-variational
 SAD guess density has 31.000000 electrons
 Long-range K will be added via erf
 Coulomb attenuation parameter = 0.2 bohr**(-1)
 An unrestricted hybrid HF-DFT SCF calculation will be
 performed using Relaxed Constraint Minimization + Pulay DIIS
 Exchange:     0.2220 Hartree-Fock + 1.0000 wB97X-D + LR-HF
 Correlation:  1.0000 wB97X-D
 Using Euler-Maclaurin-Lebedev (75,302) quadrature formula
 Dispersion:   Grimme D
 SCF converges when DIIS error is below 1.0E-04
 using 6 threads for integral computing
 -------------------------------------------------------
 OpenMP Integral computing Module                
 Release: version 1.0, May 2013, Q-Chem Inc. Pittsburgh 
 -------------------------------------------------------
 using 6 threads for integral computing
 -------------------------------------------------------
 OpenMP Integral computing Module                
 Release: version 1.0, May 2013, Q-Chem Inc. Pittsburgh 
 -------------------------------------------------------
 ---------------------------------------
  Cycle       Energy         DIIS Error
 ---------------------------------------
    1    -281.0396686746      1.15E-01
    2    -279.9146654666      2.59E-02
    3    -280.0002277965      3.85E-03
    4    -280.1107076848      3.40E-03
    5    -280.1122417910      6.01E-04 Done RCA. Switching to DIIS
    6    -280.1145569902      5.76E-04
    7    -280.1149058110      2.83E-04
    8    -280.1150053137      1.68E-04
    9    -280.1152450796      1.55E-04
   10    -280.1153111383      2.49E-05 Convergence criterion met
 ---------------------------------------
 <S^2> = 0.7549
 SCF time:  CPU 15.68 s  wall 3.73 s
 SCF   energy in the small basis set = -280.11531114
 Total energy in the small basis set = -280.11531114
 ----------------------------------------------------
  Cycle       Energy    
 ----------------------------------------------------
    1     -28.3746223948     -2.84E+01
 Long-range K will be added via erf
 Coulomb attenuation parameter = 0.2 bohr**(-1)
 An unrestricted hybrid HF-DFT SCF calculation will be
 performed using Relaxed Constraint Minimization + Pulay DIIS
 Exchange:     0.2220 Hartree-Fock + 1.0000 wB97X-D + LR-HF
 Correlation:  1.0000 wB97X-D
 Using Euler-Maclaurin-Lebedev (75,302) quadrature formula
 Dispersion:   Grimme D
 SCF converges when DIIS error is below 1.0E-05
 Basis2 calculation detected. Using small basis as guess for larger.
 SCFMinFind is unable to tell whether the solution found is close.
 Resetting ReadMinima to 0 and attempting to follow guess.
 SCFMinFind following SCF Guess.
 using 6 threads for integral computing
 -------------------------------------------------------
 OpenMP Integral computing Module                
 Release: version 1.0, May 2013, Q-Chem Inc. Pittsburgh 
 -------------------------------------------------------
 using 6 threads for integral computing
 -------------------------------------------------------
 OpenMP Integral computing Module                
 Release: version 1.0, May 2013, Q-Chem Inc. Pittsburgh 
 -------------------------------------------------------
 ---------------------------------------
  Cycle       Energy         DIIS Error
 ---------------------------------------
    1    -280.1742176697      1.01E-02
    2    -280.1531034317      6.78E-03
    3    -280.1790670751      2.06E-03
    4    -280.2136366210      1.15E-03
    5    -280.2180325154      9.78E-04 Done RCA. Switching to DIIS
    6    -280.2185155099      1.74E-03
    7    -280.2239467711      1.61E-04
    8    -280.2241852704      9.39E-05
    9    -280.2243790976      3.54E-05
   10    -280.2244049637      6.83E-06 Convergence criterion met
 ---------------------------------------
 <S^2> = 0.7563
 SCF time:  CPU 46.27 s  wall 8.63 s
 SCF   energy in the final basis set = -280.22440496
 Total energy in the final basis set = -280.22440496
 
 --------------------------------------------------------------
 
                    Orbital Energies (a.u.)
 --------------------------------------------------------------
 
 Alpha MOs
 -- Occupied --
-19.4056 -19.3713 -19.3607 -14.7853  -1.4755  -1.2703  -1.2337  -0.7914
 -0.7380  -0.7170  -0.7027  -0.5643  -0.5029  -0.4952  -0.4790  -0.4598
 -- Virtual --
 -0.0260   0.0861   0.1377   0.1385   0.1576   0.2135   0.2336   0.2411
  0.2577   0.2584   0.2602   0.3268   0.3275   0.3325   0.3487   0.3509
  0.3692   0.4368   0.4430   0.4903   0.7600   0.7836   0.8718   0.8911
  0.9691   0.9887   1.0296   1.0365   1.0575   1.0648   1.0689   1.1110
  1.1157   1.1526   1.1804   1.3439   1.3788   1.4695   1.5010   1.5507
  1.5655   1.5812   1.5916   1.6398   1.7548   1.8766   1.9522   1.9610
  1.9905   2.2237   2.3557   2.3897   2.4723   2.5195   2.6794   2.7832
  3.6244   3.6531   3.6931   3.6990   3.7264   3.9855   3.9923   4.2134
  4.3439   4.4223   4.4332   4.5195   4.5378   4.5947   4.6581   4.9709
  4.9761   4.9826   4.9953   5.0213   5.0259   5.0337   5.0716   5.0917
  5.0964   5.1109   5.1662   5.1714   5.1907   5.3026   5.3432   5.4428
  5.5349   5.6536   5.7696   5.8356   6.1631   6.2267   6.2972   6.5160
  6.6224   6.7091   6.7430   6.7782   6.7793   6.8040   6.8230   6.8329
  7.0718   7.1501   7.1571   7.2481   7.3180   7.3563   7.4498   7.5250
  7.8110   7.8355   7.9810   8.1960  36.1829  50.0176  50.2035  50.2288
 
 Beta MOs
 -- Occupied --
-19.3886 -19.3642 -19.3574 -14.7862  -1.4645  -1.2588  -1.1982  -0.7711
 -0.7355  -0.6964  -0.6823  -0.4755  -0.4741  -0.4724  -0.4633
 -- Virtual --
 -0.1643  -0.0226   0.0863   0.1375   0.1377   0.1573   0.2176   0.2337
  0.2427   0.2581   0.2597   0.2650   0.3269   0.3284   0.3331   0.3482
  0.3509   0.3768   0.4386   0.4470   0.5015   0.7593   0.7851   0.8793
  0.8988   0.9712   0.9904   1.0338   1.0583   1.0592   1.0678   1.0749
  1.1127   1.1231   1.1758   1.1831   1.3529   1.3889   1.4939   1.5134
  1.5663   1.5716   1.5975   1.6052   1.6480   1.7625   1.8886   1.9635
  1.9640   2.0159   2.2275   2.3598   2.4030   2.4765   2.5230   2.6942
  2.7916   3.6227   3.6546   3.6949   3.6991   3.7285   3.9924   3.9962
  4.2200   4.3519   4.4310   4.4377   4.5192   4.5447   4.5992   4.6577
  4.9923   5.0065   5.0252   5.0318   5.0346   5.0502   5.0555   5.1001
  5.1075   5.1177   5.1262   5.1746   5.1879   5.2148   5.3238   5.3626
  5.4497   5.5511   5.6686   5.7775   5.8428   6.1885   6.2352   6.3237
  6.5212   6.6448   6.7558   6.7732   6.8009   6.8076   6.8290   6.8380
  6.8679   7.1056   7.1594   7.1688   7.2550   7.3336   7.3921   7.4682
  7.5437   7.8198   7.8470   7.9882   8.2030  36.1821  50.0339  50.2108
 50.2320
 --------------------------------------------------------------
 
 -----------------------------------------------------------------
                    Cartesian Multipole Moments
 -----------------------------------------------------------------
    Charge (ESU x 10^10)
                -0.0000
    Dipole Moment (Debye)
         X       0.2500      Y       0.1707      Z       0.0000
       Tot       0.3027
    Quadrupole Moments (Debye-Ang)
        XX     -22.2991     XY       0.2354     YY     -22.9893
        XZ       0.0000     YZ      -0.0000     ZZ     -20.0454
    Octopole Moments (Debye-Ang^2)
       XXX       0.8999    XXY      -0.6464    XYY       0.2497
       YYY       1.6663    XXZ       0.0000    XYZ       0.0000
       YYZ       0.0000    XZZ      -0.1943    YZZ      -0.1805
       ZZZ       0.0000
    Hexadecapole Moments (Debye-Ang^3)
      XXXX     -82.8707   XXXY       1.3759   XXYY     -29.5421
      XYYY       1.4943   YYYY     -92.7972   XXXZ       0.0000
      XXYZ       0.0000   XYYZ       0.0000   YYYZ      -0.0000
      XXZZ     -16.7229   XYZZ       0.3162   YYZZ     -17.9979
      XZZZ       0.0000   YZZZ      -0.0000   ZZZZ     -14.9940
 -----------------------------------------------------------------
Archival summary:
1\1\centos77-c2\SP\ProcedureUnspecified\BasisUnspecified\31(2)\shihchen\SunJul1220:17:222020SunJul1220:17:222020\0\\#,ProcedureUnspecified,BasisUnspecified,\\0,2\N\O,1,1.19342\O,1,1.20543,2,131.106\O,1,1.27762,2,117.521,3,-180,0\\\@

 Total job time:  14.14s(wall), 65.46s(cpu) 
 Sun Jul 12 20:17:22 2020

        *************************************************************
        *                                                           *
        *  Thank you very much for using Q-Chem.  Have a nice day.  *
        *                                                           *
        *************************************************************


