                  Welcome to Q-Chem
     A Quantum Leap Into The Future Of Chemistry


 Q-Chem 5.3 (devel), Q-Chem, Inc., Pleasanton, CA (2020)

 Yihan Shao,  Zhengting Gan,  E. Epifanovsky,  A. T. B. Gilbert,  M. Wormit,  
 J. Kussmann,  A. W. Lange,  A. Behn,  Jia Deng,  Xintian Feng,  D. Ghosh,  
 M. Goldey,  P. R. Horn,  L. D. Jacobson,  I. Kaliman,  T. Kus,  A. Landau,  
 Jie Liu,  E. I. Proynov,  R. M. Richard,  R. P. Steele,  E. J. Sundstrom,  
 H. L. Woodcock III,  P. M. Zimmerman,  D. Zuev,  B. Alam,  B. Albrecht,  
 E. Alguire,  S. A. Baeppler,  D. Barton,  Z. Benda,  Y. A. Bernard,  
 E. J. Berquist,  K. B. Bravaya,  H. Burton,  K. Carter-Fenk,  D. Casanova,  
 Chun-Min Chang,  Yunqing Chen,  A. Chien,  K. D. Closser,  M. P. Coons,  
 S. Coriani,  S. Dasgupta,  A. L. Dempwolff,  M. Diedenhofen,  Hainam Do,  
 R. G. Edgar,  Po-Tung Fang,  S. Faraji,  S. Fatehi,  Qingguo Feng,  
 J. Fosso-Tande,  J. Gayvert,  Qinghui Ge,  A. Ghysels,  G. Gidofalvi,  
 J. Gomes,  J. Gonthier,  A. Gunina,  D. Hait,  M. W. D. Hanson-Heine,  
 P. H. P. Harbach,  A. W. Hauser,  M. F. Herbst,  J. E. Herr,  
 E. G. Hohenstein,  Z. C. Holden,  Kerwin Hui,  B. C. Huynh,  T.-C. Jagau,  
 Hyunjun Ji,  B. Kaduk,  K. Khistyaev,  Jaehoon Kim,  P. Klunzinger,  K. Koh,  
 D. Kosenkov,  L. Koulias,  T. Kowalczyk,  C. M. Krauter,  A. Kunitsa,  
 Ka Un Lao,  A. Laurent,  K. V. Lawler,  Joonho Lee,  D. Lefrancois,  
 S. Lehtola,  D. S. Levine,  Yi-Pei Li,  You-Sheng Lin,  Fenglai Liu,  
 Kuan-Yu Liu,  E. Livshits,  M. Loipersberger,  A. Luenser,  P. Manohar,  
 E. Mansoor,  S. F. Manzer,  Shan-Ping Mao,  Yuezhi Mao,  N. Mardirossian,  
 A. V. Marenich,  T. Markovich,  L. A. Martinez-Martinez,  S. A. Maurer,  
 N. J. Mayhall,  S. C. McKenzie,  J.-M. Mewes,  P. Morgante,  A. F. Morrison,  
 J. W. Mullinax,  K. Nanda,  T. S. Nguyen-Beck,  R. Olivares-Amaya,  
 K. J. Oosterbaan,  J. A. Parkhill,  S. K. Paul,  F. Pavosevic,  Zheng Pei,  
 T. M. Perrine,  F. Plasser,  P. Pokhilko,  S. Prager,  A. Prociuk,  
 E. Ramos,  B. Rana,  D. R. Rehn,  F. Rob,  M. Scheurer,  M. Schneider,  
 N. Sergueev,  S. M. Sharada,  S. Sharma,  D. W. Small,  T. Stauch,  
 C. J. Stein,  T. Stein,  Yu-Chuan Su,  S. P. Veccham,  Zhen Tao,  
 A. J. W. Thom,  A. Tkatchenko,  T. Tsuchimochi,  N. M. Tubman,  L. Vogt,  
 M. L. Vidal,  O. Vydrov,  M. A. Watson,  J. Wenzel,  M. de Wergifosse,  
 T. A. Wesolowski,  A. White,  J. Witte,  A. Yamada,  Jun Yang,  K. Yao,  
 S. Yeganeh,  S. R. Yost,  Zhi-Qiang You,  A. Zech,  Igor Ying Zhang,  
 Xing Zhang,  Yan Zhao,  Ying Zhu,  B. R. Brooks,  G. K. L. Chan,  
 C. J. Cramer,  M. S. Gordon,  W. J. Hehre,  A. Klamt,  M. W. Schmidt,  
 C. D. Sherrill,  D. G. Truhlar,  A. Aspuru-Guzik,  R. Baer,  A. T. Bell,  
 N. A. Besley,  Jeng-Da Chai,  A. E. DePrince, III,  R. A. DiStasio Jr.,  
 A. Dreuw,  B. D. Dunietz,  T. R. Furlani,  Chao-Ping Hsu,  Yousung Jung,  
 Jing Kong,  D. S. Lambrecht,  WanZhen Liang,  C. Ochsenfeld,  
 V. A. Rassolov,  L. V. Slipchenko,  J. E. Subotnik,  T. Van Voorhis,  
 J. M. Herbert,  A. I. Krylov,  P. M. W. Gill,  M. Head-Gordon

 Contributors to earlier versions of Q-Chem not listed above: 
 R. D. Adamson,  B. Austin,  J. Baker,  G. J. O. Beran,  K. Brandhorst,  
 S. T. Brown,  E. F. C. Byrd,  A. K. Chakraborty,  C.-L. Cheng,  
 Siu Hung Chien,  D. M. Chipman,  D. L. Crittenden,  H. Dachsel,  
 R. J. Doerksen,  A. D. Dutoi,  L. Fusti-Molnar,  W. A. Goddard III,  
 A. Golubeva-Zadorozhnaya,  S. R. Gwaltney,  G. Hawkins,  A. Heyden,  
 S. Hirata,  G. Kedziora,  F. J. Keil,  C. Kelley,  Jihan Kim,  R. A. King,  
 R. Z. Khaliullin,  P. P. Korambath,  W. Kurlancheek,  A. M. Lee,  M. S. Lee,  
 S. V. Levchenko,  Ching Yeh Lin,  D. Liotard,  R. C. Lochan,  I. Lotan,  
 P. E. Maslen,  N. Nair,  D. P. O'Neill,  D. Neuhauser,  E. Neuscamman,  
 C. M. Oana,  R. Olson,  B. Peters,  R. Peverati,  P. A. Pieniazek,  
 Y. M. Rhee,  J. Ritchie,  M. A. Rohrdanz,  E. Rosta,  N. J. Russ,  
 H. F. Schaefer III,  N. E. Schultz,  N. Shenvi,  A. C. Simmonett,  A. Sodt,  
 D. Stuck,  K. S. Thanthiriwatte,  V. Vanovschi,  Tao Wang,  A. Warshel,  
 C. F. Williams,  Q. Wu,  X. Xu,  W. Zhang

 Please cite Q-Chem as follows:
 Y. Shao et al., Mol. Phys. 113, 184-215 (2015)
 DOI: 10.1080/00268976.2014.952696

 Q-Chem 5.3.0 for Intel X86 EM64T Linux

 Parts of Q-Chem use Armadillo 9.800.1 (Horizon Scraper).
 http://arma.sourceforge.net/

 Q-Chem begins on Sun Jul 12 20:24:32 2020  

Host: centos77-c2
0

     Scratch files written to /tmp/28905.centos77-h1/qchem122516//
Processing $rem in /opt/qchem-5.3.0-intel2020u1//config/preferences:
Processing $rem in /home/shihchengli/.qchemrc:

Checking the input file for inconsistencies... 	...done.

--------------------------------------------------------------
User input:
--------------------------------------------------------------
$rem
   JOBTYPE  sp
   EXCHANGE   omegaB97X-D
   BASIS   6-311+G(2df,2pd)
   UNRESTRICTED   True
   max_scf_cycles   250
   geom_opt_max_cycles   1500
   basis2 6-31G*
   scf_algorithm rca_diis
   SYM_IGNORE  TRUE
   print_input   true
   geom_opt_dmax   80
   pop_mulliken false
   XC_GRID 000075000302
$end

$molecule
0 2
N       -0.0514778900     -0.0510742917     0.0000000000
O       -0.0252759156     -1.2444817299     -0.0000000000
O       -0.9889008554     0.6050287024     -0.0000000000
O       1.0656549429     0.6865992413     -0.0000000000
$end
--------------------------------------------------------------
 ----------------------------------------------------------------
             Standard Nuclear Orientation (Angstroms)
    I     Atom           X                Y                Z
 ----------------------------------------------------------------
    1      N      -0.0514778900    -0.0510742917     0.0000000000
    2      O      -0.0252759156    -1.2444817299     0.0000000000
    3      O      -0.9889008554     0.6050287024     0.0000000000
    4      O       1.0656549429     0.6865992413     0.0000000000
 ----------------------------------------------------------------
 Nuclear Repulsion Energy =         120.84068373 hartrees
 There are       16 alpha and       15 beta electrons
 Requested basis set is 6-311+G(2df,2pd)
 There are 32 shells and 136 basis functions

 Total QAlloc Memory Limit   2000 MB
 Mega-Array Size       188 MB
 MEM_STATIC part       192 MB

                       Distance Matrix (Angstroms)
             N (  1)   O (  2)   O (  3)
   O (  2)  1.193695
   O (  3)  1.144217  2.085488
   O (  4)  1.338711  2.217928  2.056174
 
 A cutoff of  1.0D-09 yielded    512 shell pairs
 There are      9503 function pairs (     12563 Cartesian)
 Smallest overlap matrix eigenvalue = 1.00E-03

 Scale SEOQF with 1.000000e-01/1.000000e-01/1.000000e-01

 Standard Electronic Orientation quadrupole field applied
 Nucleus-field energy     =     0.0000000020 hartrees
 Requested basis set is 6-31G(d)
 There are 16 shells and 56 basis functions
 A cutoff of  1.0D-09 yielded    133 shell pairs
 There are      1681 function pairs (      1935 Cartesian)
 Smallest overlap matrix eigenvalue = 5.29E-03
 Guess from superposition of atomic densities
 Warning:  Energy on first SCF cycle will be non-variational
 SAD guess density has 31.000000 electrons
 Long-range K will be added via erf
 Coulomb attenuation parameter = 0.2 bohr**(-1)
 An unrestricted hybrid HF-DFT SCF calculation will be
 performed using Relaxed Constraint Minimization + Pulay DIIS
 Exchange:     0.2220 Hartree-Fock + 1.0000 wB97X-D + LR-HF
 Correlation:  1.0000 wB97X-D
 Using Euler-Maclaurin-Lebedev (75,302) quadrature formula
 Dispersion:   Grimme D
 SCF converges when DIIS error is below 1.0E-04
 using 6 threads for integral computing
 -------------------------------------------------------
 OpenMP Integral computing Module                
 Release: version 1.0, May 2013, Q-Chem Inc. Pittsburgh 
 -------------------------------------------------------
 using 6 threads for integral computing
 -------------------------------------------------------
 OpenMP Integral computing Module                
 Release: version 1.0, May 2013, Q-Chem Inc. Pittsburgh 
 -------------------------------------------------------
 ---------------------------------------
  Cycle       Energy         DIIS Error
 ---------------------------------------
    1    -281.0803600518      1.18E-01
    2    -279.9034554891      2.58E-02
    3    -279.9873613078      4.37E-03
    4    -280.0968620378      4.36E-03
    5    -280.0993832258      9.08E-04 Done RCA. Switching to DIIS
    6    -280.1033856579      8.33E-04
    7    -280.1040355677      5.78E-04
    8    -280.1043021214      3.70E-04
    9    -280.1048299109      1.40E-04
   10    -280.1049071958      2.08E-05 Convergence criterion met
 ---------------------------------------
 <S^2> = 0.7546
 SCF time:  CPU 18.86 s  wall 4.93 s
 SCF   energy in the small basis set = -280.10490720
 Total energy in the small basis set = -280.10490720
 ----------------------------------------------------
  Cycle       Energy    
 ----------------------------------------------------
    1     -28.3977803577     -2.84E+01
 Long-range K will be added via erf
 Coulomb attenuation parameter = 0.2 bohr**(-1)
 An unrestricted hybrid HF-DFT SCF calculation will be
 performed using Relaxed Constraint Minimization + Pulay DIIS
 Exchange:     0.2220 Hartree-Fock + 1.0000 wB97X-D + LR-HF
 Correlation:  1.0000 wB97X-D
 Using Euler-Maclaurin-Lebedev (75,302) quadrature formula
 Dispersion:   Grimme D
 SCF converges when DIIS error is below 1.0E-05
 Basis2 calculation detected. Using small basis as guess for larger.
 SCFMinFind is unable to tell whether the solution found is close.
 Resetting ReadMinima to 0 and attempting to follow guess.
 SCFMinFind following SCF Guess.
 using 6 threads for integral computing
 -------------------------------------------------------
 OpenMP Integral computing Module                
 Release: version 1.0, May 2013, Q-Chem Inc. Pittsburgh 
 -------------------------------------------------------
 using 6 threads for integral computing
 -------------------------------------------------------
 OpenMP Integral computing Module                
 Release: version 1.0, May 2013, Q-Chem Inc. Pittsburgh 
 -------------------------------------------------------
 ---------------------------------------
  Cycle       Energy         DIIS Error
 ---------------------------------------
    1    -280.1523735743      1.03E-02
    2    -280.0995549199      8.47E-03
    3    -280.1399467200      2.76E-03
    4    -280.1941024336      1.16E-03
    5    -280.2051415023      2.06E-03
    6    -280.2083422999      4.24E-04 Done RCA. Switching to DIIS
    7    -280.2142416486      5.78E-04
    8    -280.2153394077      1.24E-04
    9    -280.2156692763      8.25E-05
   10    -280.2157657726      1.72E-05
   11    -280.2157704961      3.17E-06 Convergence criterion met
 ---------------------------------------
 <S^2> = 0.7559
 SCF time:  CPU 48.28 s  wall 9.27 s
 SCF   energy in the final basis set = -280.21577050
 Total energy in the final basis set = -280.21577050
 
 --------------------------------------------------------------
 
                    Orbital Energies (a.u.)
 --------------------------------------------------------------
 
 Alpha MOs
 -- Occupied --
-19.4079 -19.3697 -19.3501 -14.7808  -1.4868  -1.2733  -1.2264  -0.7905
 -0.7425  -0.7210  -0.6971  -0.5651  -0.5029  -0.4980  -0.4758  -0.4549
 -- Virtual --
 -0.0166   0.0835   0.1371   0.1386   0.1572   0.1689   0.2393   0.2414
  0.2553   0.2580   0.2608   0.3254   0.3328   0.3419   0.3492   0.3495
  0.4070   0.4353   0.4426   0.5155   0.7566   0.8046   0.8444   0.9096
  0.9601   0.9903   1.0423   1.0458   1.0608   1.0710   1.0716   1.1094
  1.1167   1.1512   1.1813   1.3353   1.3856   1.4731   1.5045   1.5551
  1.5739   1.5779   1.5870   1.6326   1.7765   1.8669   1.9541   1.9594
  1.9888   2.2466   2.3426   2.3457   2.5018   2.5433   2.6878   2.7886
  3.6149   3.6503   3.6678   3.6837   3.7718   4.0080   4.0301   4.1155
  4.3791   4.4070   4.4473   4.4792   4.5737   4.6140   4.6741   4.9721
  4.9723   4.9859   4.9923   5.0146   5.0245   5.0379   5.0582   5.0745
  5.1084   5.1236   5.1478   5.1865   5.1868   5.3333   5.3563   5.4360
  5.5468   5.6607   5.7734   5.8518   6.0800   6.1205   6.3539   6.6386
  6.6830   6.7125   6.7557   6.7839   6.7847   6.8178   6.8351   6.9021
  7.0314   7.1286   7.1813   7.2237   7.2421   7.3348   7.5595   7.5915
  7.8234   7.8816   7.9303   8.2117  36.2380  49.9696  50.2258  50.3054
 
 Beta MOs
 -- Occupied --
-19.3895 -19.3639 -19.3475 -14.7817  -1.4781  -1.2650  -1.1837  -0.7695
 -0.7404  -0.7015  -0.6811  -0.4754  -0.4749  -0.4713  -0.4595
 -- Virtual --
 -0.1610  -0.0139   0.0849   0.1372   0.1380   0.1569   0.1793   0.2392
  0.2430   0.2578   0.2594   0.2603   0.3271   0.3320   0.3409   0.3488
  0.3491   0.4138   0.4384   0.4467   0.5249   0.7561   0.8063   0.8525
  0.9158   0.9623   0.9926   1.0451   1.0633   1.0675   1.0764   1.0772
  1.1142   1.1199   1.1746   1.1841   1.3420   1.3993   1.4975   1.5247
  1.5604   1.5853   1.5930   1.5986   1.6419   1.7917   1.8740   1.9627
  1.9629   2.0128   2.2498   2.3467   2.3614   2.5047   2.5475   2.7022
  2.7966   3.6141   3.6516   3.6685   3.6839   3.7738   4.0175   4.0302
  4.1233   4.3851   4.4109   4.4469   4.4876   4.5788   4.6202   4.6732
  4.9975   5.0016   5.0261   5.0344   5.0370   5.0486   5.0612   5.0844
  5.0959   5.1267   5.1354   5.1701   5.1961   5.2034   5.3526   5.3785
  5.4460   5.5583   5.6722   5.7849   5.8597   6.1040   6.1293   6.3793
  6.6504   6.7146   6.7622   6.7759   6.8072   6.8293   6.8388   6.8525
  6.9052   7.0679   7.1461   7.1855   7.2455   7.2479   7.3761   7.5723
  7.6013   7.8313   7.8917   7.9421   8.2173  36.2372  49.9892  50.2285
 50.3104
 --------------------------------------------------------------
 
 -----------------------------------------------------------------
                    Cartesian Multipole Moments
 -----------------------------------------------------------------
    Charge (ESU x 10^10)
                -0.0000
    Dipole Moment (Debye)
         X       0.1758      Y       0.3673      Z       0.0000
       Tot       0.4072
    Quadrupole Moments (Debye-Ang)
        XX     -22.1258     XY       0.1009     YY     -23.1002
        XZ       0.0000     YZ       0.0000     ZZ     -20.0227
    Octopole Moments (Debye-Ang^2)
       XXX       0.5524    XXY      -0.5762    XYY       0.0031
       YYY       2.1368    XXZ       0.0000    XYZ       0.0000
       YYZ       0.0000    XZZ      -0.5709    YZZ      -0.1113
       ZZZ       0.0000
    Hexadecapole Moments (Debye-Ang^3)
      XXXX     -82.3553   XXXY      -2.6675   XXYY     -29.7872
      XYYY      -2.1857   YYYY     -93.3851   XXXZ       0.0000
      XXYZ       0.0000   XYYZ       0.0000   YYYZ       0.0000
      XXZZ     -16.7288   XYZZ      -1.1567   YYZZ     -18.1411
      XZZZ       0.0000   YZZZ       0.0000   ZZZZ     -15.0030
 -----------------------------------------------------------------
Archival summary:
1\1\centos77-c2\SP\ProcedureUnspecified\BasisUnspecified\31(2)\shihchen\SunJul1220:24:482020SunJul1220:24:482020\0\\#,ProcedureUnspecified,BasisUnspecified,\\0,2\N\O,1,1.14422\O,1,1.1937,2,126.246\O,1,1.33871,2,111.574,3,-180,0\\\@

 Total job time:  16.07s(wall), 70.74s(cpu) 
 Sun Jul 12 20:24:48 2020

        *************************************************************
        *                                                           *
        *  Thank you very much for using Q-Chem.  Have a nice day.  *
        *                                                           *
        *************************************************************


