4
# Point -7 Energy = 0.07111405000000559
N       -0.0125078835     0.2072490552     -0.0000000000
O       0.0145820676     -1.0583211390     0.0000000000
O       -1.1425316047     0.4320251751     -0.0000000000
O       1.1404577024     0.4151188306     -0.0000000000
4
# Point -6 Energy = 0.04375427999997328
N       -0.0108966777     0.1701072176     -0.0000000000
O       0.0120278796     -1.0852360682     0.0000000000
O       -1.1384403155     0.4625239746     -0.0000000000
O       1.1373093955     0.4486767980     -0.0000000000
4
# Point -5 Energy = 0.024067220000006273
N       -0.0092364020     0.1328094087     -0.0000000000
O       0.0096400835     -1.1122925898     0.0000000000
O       -1.1302360575     0.4932646134     0.0000000000
O       1.1298326577     0.4822904898     0.0000000000
4
# Point -4 Energy = 0.011187189999986913
N       -0.0075281638     0.0954854717     -0.0000000000
O       0.0074182955     -1.1393616480     0.0000000000
O       -1.1178707081     0.5241289724     0.0000000000
O       1.1179808581     0.5158191259     0.0000000000
4
# Point -3 Energy = 0.00409138999998504
N       -0.0057733202     0.0582674884     -0.0000000000
O       0.0053621510     -1.1663119471     0.0000000000
O       -1.1013120462     0.5549968079     0.0000000000
O       1.1017234971     0.5491195729     0.0000000000
4
# Point -2 Energy = 0.0012902799999778836
N       -0.0039734623     0.0212892848     -0.0000000000
O       0.0034712925     -1.1930104494     0.0000000000
O       -1.0805441132     0.5857462965     0.0000000000
O       1.0810465647     0.5820467901     0.0000000000
4
# Point -1 Energy = 0.00046696999993400823
N       -0.0021304070     -0.0153140751     -0.0000000000
O       0.0017453514     -1.2193228844     0.0000000000
O       -1.0555675073     0.6162546024     0.0000000000
O       1.0559528447     0.6144542791     0.0000000000
4
# Point 0 Energy = 0
N       -0.0002461962     -0.0514068086     0.0000000000
O       0.0001839201     -1.2451142705     0.0000000000
O       -1.0263996066     0.6463984638     0.0000000000
O       1.0264621645     0.6461945373     0.0000000000
4
# Point 1 Energy = 0.0012803999999846383
N       0.0016768953     -0.0868529420     0.0000000000
O       -0.0012134874     -1.2702494436     -0.0000000000
O       -0.9930747179     0.6760547953     -0.0000000000
O       0.9926115917     0.6771195123     -0.0000000000
4
# Point 2 Energy = 0.006778840000038144
N       0.0036363415     -0.1215168468     -0.0000000000
O       -0.0024474892     -1.2945935942     0.0000000000
O       -0.9556441477     0.7051013028     0.0000000000
O       0.9544555772     0.7070810602     0.0000000000
4
# Point 3 Energy = 0.01898506999998517
N       0.0056293342     -0.1552637809     -0.0000000000
O       -0.0035189080     -1.3180128086     0.0000000000
O       -0.9141761921     0.7334171052     0.0000000000
O       0.9120660477     0.7359314062     0.0000000000
4
# Point 4 Energy = 0.04107057999999597
N       0.0076527397     -0.1879604342     -0.0000000000
O       -0.0044288638     -1.3403746130     0.0000000000
O       -0.8687560412     0.7608833571     0.0000000000
O       0.8655324471     0.7635236121     0.0000000000
4
# Point 5 Energy = 0.07779890000000478
N       0.0097030382     -0.2194754761     -0.0000000000
O       -0.0051788906     -1.3615485189     0.0000000000
O       -0.8194855970     0.7873838655     0.0000000000
O       0.8149617312     0.7897120514     0.0000000000

    This sampling was finished on:   2020-07-13 14:55:01
=------------------------------------------------------------------------------=
Sampling finished.
=------------------------------------------------------------------------------=