4
# Point -6 Energy = 0.06301199000000679
N       0.0005178031     -0.0995909912     0.0000000000
O       0.0003220324     -1.3545923982     -0.0000000000
O       -1.1671722792     0.7256285457     -0.0000000000
O       1.1663327255     0.7246267657     -0.0000000000
4
# Point -5 Energy = 0.046590569999978015
N       0.0003878228     -0.0913734563     0.0000000000
O       0.0003019597     -1.3361592284     -0.0000000000
O       -1.1440089472     0.7122386151     -0.0000000000
O       1.1433194465     0.7113659916     -0.0000000000
4
# Point -4 Energy = 0.03178936000000476
N       0.0002589028     -0.0832303025     0.0000000000
O       0.0002807368     -1.3178004303     -0.0000000000
O       -1.1207251910     0.6989223126     -0.0000000000
O       1.1201858333     0.6981803423     -0.0000000000
4
# Point -3 Energy = 0.019093279999992774
N       0.0001310416     -0.0751617965     0.0000000000
O       0.0002583431     -1.2995162707     -0.0000000000
O       -1.0973216933     0.6856798936     -0.0000000000
O       1.0969325903     0.6850700956     -0.0000000000
4
# Point -2 Energy = 0.009077569999931256
N       0.0000042383     -0.0671682033     0.0000000000
O       0.0002347575     -1.2813070151     -0.0000000000
O       -1.0737991386     0.6725116118     -0.0000000000
O       1.0735604247     0.6720355286     -0.0000000000
4
# Point -1 Energy = 0.0024338900000202557
N       -0.0001215077     -0.0592497866     0.0000000000
O       0.0002099575     -1.2631729275     -0.0000000000
O       -1.0501582136     0.6594177186     -0.0000000000
O       1.0500700455     0.6590769174     -0.0000000000
4
# Point 0 Energy = 0
N       -0.0002461962     -0.0514068086     0.0000000000
O       0.0001839201     -1.2451142705     0.0000000000
O       -1.0263996066     0.6463984638     0.0000000000
O       1.0264621645     0.6461945373     0.0000000000
4
# Point 1 Energy = 0.0028086600000847284
N       -0.0003698266     -0.0436395301     -0.0000000000
O       0.0001566210     -1.2271313053     0.0000000000
O       -1.0025240081     0.6334540948     0.0000000000
O       1.0027374954     0.6333886626     0.0000000000
4
# Point 2 Energy = 0.012132599999972626
N       -0.0004923975     -0.0359482105     -0.0000000000
O       0.0001280350     -1.2092242916     0.0000000000
O       -0.9785321102     0.6205848570     0.0000000000
O       0.9788967546     0.6206595672     0.0000000000
4
# Point 3 Energy = 0.02951834999998937
N       -0.0006139069     -0.0283331076     -0.0000000000
O       0.0000981354     -1.1913934876     0.0000000000
O       -0.9544246071     0.6077909933     0.0000000000
O       0.9549406604     0.6080075240     0.0000000000
4
# Point 4 Energy = 0.05683800000002748
N       -0.0007343518     -0.0207944778     -0.0000000000
O       0.0000668944     -1.1736391502     0.0000000000
O       -0.9302021947     0.5950727444     0.0000000000
O       0.9308699340     0.5954328056     0.0000000000

    This sampling was finished on:   2020-07-13 14:55:01
=------------------------------------------------------------------------------=
Sampling finished.
=------------------------------------------------------------------------------=