4
# Point -5 Energy = 0.08178089000006139
N       0.2546748499     -0.0472970423     0.0000000000
O       -0.2033430792     -1.1511897840     -0.0000000000
O       -1.0565086820     0.4938791547     -0.0000000000
O       1.0051771931     0.7006795936     -0.0000000000
4
# Point -4 Energy = 0.04407880000002251
N       0.2051846612     -0.0477932247     0.0000000000
O       -0.1639764964     -1.1841888143     -0.0000000000
O       -1.0506581368     0.5313953174     -0.0000000000
O       1.0094502538     0.6966586436     -0.0000000000
4
# Point -3 Energy = 0.01999891000008347
N       0.1547139121     -0.0484785177     0.0000000000
O       -0.1236633438     -1.2101568087     -0.0000000000
O       -1.0447376531     0.5654959420     -0.0000000000
O       1.0136873666     0.6892113064     -0.0000000000
4
# Point -2 Energy = 0.006657050000001163
N       0.1034947394     -0.0493240300     0.0000000000
O       -0.0826841033     -1.2290033946     -0.0000000000
O       -1.0387274996     0.5960803930     -0.0000000000
O       1.0179171453     0.6783189536     -0.0000000000
4
# Point -1 Energy = 0.001153709999982766
N       0.0517623060     -0.0503061234     0.0000000000
O       -0.0413122777     -1.2406669372     -0.0000000000
O       -1.0326163465     0.6230681352     -0.0000000000
O       1.0221666000     0.6639768474     -0.0000000000
4
# Point 0 Energy = 0
N       -0.0002461962     -0.0514068086     0.0000000000
O       0.0001839201     -1.2451142705     0.0000000000
O       -1.0263996066     0.6463984638     0.0000000000
O       1.0264621645     0.6461945373     0.0000000000
4
# Point 1 Energy = 0.0012556799999856594
N       -0.0522925540     -0.0526139880     -0.0000000000
O       0.0415399964     -1.2423405325     0.0000000000
O       -1.0200778630     0.6660300862     0.0000000000
O       1.0308307024     0.6249963562     0.0000000000
4
# Point 2 Energy = 0.007132450000028712
N       -0.1041385459     -0.0539215791     -0.0000000000
O       0.0824936829     -1.2323690672     0.0000000000
O       -1.0136553802     0.6819406030     0.0000000000
O       1.0353005249     0.6004219653     0.0000000000
4
# Point 3 Energy = 0.020939199999986613
N       -0.1555469558     -0.0553295344     -0.0000000000
O       0.1227834676     -1.2152513781     0.0000000000
O       -1.0071386846     0.6941259266     0.0000000000
O       1.0399024546     0.5725269079     0.0000000000
4
# Point 4 Energy = 0.04522274999999354
N       -0.2062825858     -0.0568437529     -0.0000000000
O       0.1621470992     -1.1910671331     0.0000000000
O       -1.0005351892     0.7025996774     0.0000000000
O       1.0446709575     0.5413831306     0.0000000000
4
# Point 5 Energy = 0.08237858000001097
N       -0.2561132610     -0.0584758640     -0.0000000000
O       0.2003200157     -1.1599242460     0.0000000000
O       -0.9938518337     0.7073926009     0.0000000000
O       1.0496453607     0.5070794312     0.0000000000

    This sampling was finished on:   2020-07-13 14:55:01
=------------------------------------------------------------------------------=
Sampling finished.
=------------------------------------------------------------------------------=