4
# Point -3 Energy = 0.050130000000081054
N       -0.0001949215     -0.1362856693     0.0000000000
O       0.0001947202     -1.1698012307     -0.0000000000
O       -1.0378839272     0.6512268927     -0.0000000000
O       1.0378844103     0.6509319294     -0.0000000000
4
# Point -2 Energy = 0.019106860000022152
N       -0.0002119921     -0.1078163535     0.0000000000
O       0.0001909308     -1.1947292152     -0.0000000000
O       -1.0347834889     0.6494409766     -0.0000000000
O       1.0348048320     0.6491765141     -0.0000000000
4
# Point -1 Energy = 0.0040982400000189045
N       -0.0002290654     -0.0795207025     0.0000000000
O       0.0001873164     -1.2198308643     -0.0000000000
O       -1.0309516592     0.6478287902     -0.0000000000
O       1.0309936899     0.6475946986     -0.0000000000
4
# Point 0 Energy = 0
N       -0.0002461962     -0.0514068086     0.0000000000
O       0.0001839201     -1.2451142705     0.0000000000
O       -1.0263996066     0.6463984638     0.0000000000
O       1.0264621645     0.6461945373     0.0000000000
4
# Point 1 Energy = 0.002885520000006636
N       -0.0002634366     -0.0234826223     -0.0000000000
O       0.0001807837     -1.2705873840     0.0000000000
O       -1.0211388403     0.6451579882     0.0000000000
O       1.0212217750     0.6449839401     0.0000000000
4
# Point 2 Energy = 0.009151499999973112
N       -0.0002808357     0.0042440517     -0.0000000000
O       0.0001779477     -1.2962580098     0.0000000000
O       -1.0151812035     0.6441152113     0.0000000000
O       1.0152843732     0.6439706687     0.0000000000
4
# Point 3 Energy = 0.015927999999973963
N       -0.0002984394     0.0317655573     -0.0000000000
O       0.0001754513     -1.3221338037     0.0000000000
O       -1.0085388668     0.6432778348     0.0000000000
O       1.0086621367     0.6431623336     0.0000000000
4
# Point 4 Energy = 0.023155620000011368
N       -0.0003162905     0.0590743907     -0.0000000000
O       0.0001733319     -1.3482222695     0.0000000000
O       -1.0012243216     0.6426534101     0.0000000000
O       1.0013675621     0.6425663907     0.0000000000
4
# Point 5 Energy = 0.03211619000001065
N       -0.0003344290     0.0861632035     -0.0000000000
O       0.0001716254     -1.3745307558     0.0000000000
O       -0.9932503729     0.6422493356     0.0000000000
O       0.9934134582     0.6421901387     0.0000000000
4
# Point 6 Energy = 0.04383942999999135
N       -0.0003528911     0.1130248057     -0.0000000000
O       0.0001703661     -1.4010664523     0.0000000000
O       -0.9846301322     0.6420728528     0.0000000000
O       0.9848129389     0.6420407159     0.0000000000
4
# Point 7 Energy = 0.059148929999992106
N       -0.0003717101     0.1396521692     -0.0000000000
O       0.0001695862     -1.4278363873     0.0000000000
O       -0.9753770105     0.6421310431     0.0000000000
O       0.9755794163     0.6421250970     0.0000000000

    This sampling was finished on:   2020-07-13 14:55:01
=------------------------------------------------------------------------------=
Sampling finished.
=------------------------------------------------------------------------------=