4
# Point -6 Energy = 0.07191417000001366
N       0.0063428929     -0.0572403004     -0.2712969498
O       -0.0100937630     -1.1917123479     0.0997026448
O       -0.9731622635     0.6153593179     0.0866170371
O       0.9769134154     0.6296652524     0.0849772678
4
# Point -5 Energy = 0.04958329999999478
N       0.0028075298     -0.0561070965     -0.2292083368
O       -0.0045625243     -1.2078919194     0.0842802490
O       -0.9883332432     0.6267939909     0.0728000949
O       0.9900885196     0.6332769470     0.0721279929
4
# Point -4 Energy = 0.03133041000006642
N       0.0008860093     -0.0547559134     -0.1848067434
O       -0.0015749764     -1.2213809729     0.0680125672
O       -1.0016098050     0.6349685608     0.0585146735
O       1.0022990539     0.6372402475     0.0582795028
4
# Point -3 Energy = 0.017366130000027624
N       0.0000455711     -0.0534279529     -0.1390436477
O       -0.0002719508     -1.2318749644     0.0512199321
O       -1.0123497236     0.6404681432     0.0439508742
O       1.0125763850     0.6409066961     0.0438728414
4
# Point -2 Energy = 0.007610539999916455
N       -0.0002130100     -0.0523415011     -0.0927120379
O       0.0001299577     -1.2392853678     0.0341809449
O       -1.0201494881     0.6439128483     0.0292817386
O       1.0202328223     0.6437859426     0.0292493544
4
# Point -1 Energy = 0.0018821099999968283
N       -0.0002476637     -0.0516438460     -0.0462950701
O       0.0001854449     -1.2436679407     0.0170773190
O       -1.0248413759     0.6457947085     0.0146164028
O       1.0249038765     0.6455890002     0.0146013483
4
# Point 0 Energy = 0
N       -0.0002461962     -0.0514068086     0.0000000000
O       0.0001839201     -1.2451142705     0.0000000000
O       -1.0263996066     0.6463984638     0.0000000000
O       1.0264621645     0.6461945373     0.0000000000
4
# Point 1 Energy = 0.0018821099999968283
N       -0.0002476637     -0.0516438460     0.0462950701
O       0.0001854449     -1.2436679407     -0.0170773190
O       -1.0248413759     0.6457947085     -0.0146164028
O       1.0249038765     0.6455890002     -0.0146013483
4
# Point 2 Energy = 0.007610539999916455
N       -0.0002130100     -0.0523415011     0.0927120379
O       0.0001299577     -1.2392853678     -0.0341809449
O       -1.0201494881     0.6439128483     -0.0292817386
O       1.0202328223     0.6437859426     -0.0292493544
4
# Point 3 Energy = 0.017366130000027624
N       0.0000455711     -0.0534279529     0.1390436477
O       -0.0002719508     -1.2318749644     -0.0512199321
O       -1.0123497236     0.6404681432     -0.0439508742
O       1.0125763850     0.6409066961     -0.0438728414
4
# Point 4 Energy = 0.03133041000006642
N       0.0008860093     -0.0547559134     0.1848067434
O       -0.0015749764     -1.2213809729     -0.0680125672
O       -1.0016098050     0.6349685608     -0.0585146735
O       1.0022990539     0.6372402475     -0.0582795028
4
# Point 5 Energy = 0.04958329999999478
N       0.0028075298     -0.0561070965     0.2292083368
O       -0.0045625243     -1.2078919194     -0.0842802490
O       -0.9883332432     0.6267939909     -0.0728000949
O       0.9900885196     0.6332769470     -0.0721279929
4
# Point 6 Energy = 0.07191417000001366
N       0.0063428929     -0.0572403004     0.2712969498
O       -0.0100937630     -1.1917123479     -0.0997026448
O       -0.9731622635     0.6153593179     -0.0866170371
O       0.9769134154     0.6296652524     -0.0849772678

    This sampling was finished on:   2020-07-13 14:55:01
=------------------------------------------------------------------------------=
Sampling finished.
=------------------------------------------------------------------------------=