4
# Point -4 Energy = 0.053373439999973016
N       -0.1026782883     -0.0497546827     -0.0000000000
O       -0.0506473549     -1.2423027140     0.0000000000
O       -0.9527305033     0.5623427905     0.0000000000
O       1.1060564283     0.7257865282     0.0000000000
4
# Point -3 Energy = 0.02575352999997449
N       -0.0770837677     -0.0505369546     -0.0000000000
O       -0.0379786639     -1.2435850390     0.0000000000
O       -0.9706464490     0.5838522044     0.0000000000
O       1.0857091624     0.7063417113     0.0000000000
4
# Point -2 Energy = 0.009890139999981784
N       -0.0514778900     -0.0510742917     -0.0000000000
O       -0.0252759156     -1.2444817299     0.0000000000
O       -0.9889008554     0.6050287024     0.0000000000
O       1.0656549429     0.6865992413     0.0000000000
4
# Point -1 Energy = 0.002190929999983382
N       -0.0258641782     -0.0513646379     -0.0000000000
O       -0.0125510250     -1.2449916874     0.0000000000
O       -1.0074875661     0.6258759858     0.0000000000
O       1.0459030511     0.6665522616     0.0000000000
4
# Point 0 Energy = 0
N       -0.0002461962     -0.0514068086     0.0000000000
O       0.0001839201     -1.2451142705     0.0000000000
O       -1.0263996066     0.6463984638     0.0000000000
O       1.0264621645     0.6461945373     0.0000000000
4
# Point 1 Energy = 0.0021994500000346306
N       0.0253724743     -0.0512005019     0.0000000000
O       0.0129167506     -1.2448493032     -0.0000000000
O       -1.0456292340     0.6666012405     -0.0000000000
O       1.0073402909     0.6255204866     -0.0000000000
4
# Point 2 Energy = 0.00996773999997913
N       0.0509882572     -0.0507463024     0.0000000000
O       0.0256353085     -1.2441970766     -0.0000000000
O       -1.0651679925     0.6864900952     -0.0000000000
O       0.9885447086     0.6045252059     -0.0000000000
4
# Point 3 Energy = 0.026039730000036343
N       0.0765976060     -0.0500456769     0.0000000000
O       0.0383275394     -1.2431583459     -0.0000000000
O       -1.0850067751     0.7060714567     -0.0000000000
O       0.9700819115     0.5832044881     -0.0000000000
4
# Point 4 Energy = 0.05411126000001332
N       0.1021970265     -0.0491009616     0.0000000000
O       0.0509815839     -1.2417343227     -0.0000000000
O       -1.1051358895     0.7253523710     -0.0000000000
O       0.9519575609     0.5615548353     -0.0000000000

    This sampling was finished on:   2020-07-13 14:55:01
=------------------------------------------------------------------------------=
Sampling finished.
=------------------------------------------------------------------------------=