                  Welcome to Q-Chem
     A Quantum Leap Into The Future Of Chemistry


 Q-Chem 5.2 (devel), Q-Chem, Inc., Pleasanton, CA (2019)

 Yihan Shao,  Zhengting Gan,  E. Epifanovsky,  A. T. B. Gilbert,  M. Wormit,  
 J. Kussmann,  A. W. Lange,  A. Behn,  Jia Deng,  Xintian Feng,  D. Ghosh,  
 M. Goldey,  P. R. Horn,  L. D. Jacobson,  I. Kaliman,  T. Kus,  A. Landau,  
 Jie Liu,  E. I. Proynov,  R. M. Richard,  R. P. Steele,  E. J. Sundstrom,  
 H. L. Woodcock III,  P. M. Zimmerman,  D. Zuev,  B. Alam,  B. Albrecht,  
 E. Alguire,  S. A. Baeppler,  D. Barton,  Z. Benda,  Y. A. Bernard,  
 E. J. Berquist,  K. B. Bravaya,  H. Burton,  K. Carter-Fenk,  D. Casanova,  
 Chun-Min Chang,  Yunqing Chen,  A. Chien,  K. D. Closser,  M. P. Coons,  
 S. Coriani,  S. Dasgupta,  A. L. Dempwolff,  M. Diedenhofen,  Hainam Do,  
 R. G. Edgar,  Po-Tung Fang,  S. Faraji,  S. Fatehi,  Qingguo Feng,  
 J. Fosso-Tande,  J. Gayvert,  Qinghui Ge,  A. Ghysels,  G. Gidofalvi,  
 J. Gomes,  J. Gonthier,  A. Gunina,  D. Hait,  M. W. D. Hanson-Heine,  
 P. H. P. Harbach,  A. W. Hauser,  M. F. Herbst,  J. E. Herr,  
 E. G. Hohenstein,  Z. C. Holden,  Kerwin Hui,  B. C. Huynh,  T.-C. Jagau,  
 Hyunjun Ji,  B. Kaduk,  K. Khistyaev,  Jaehoon Kim,  P. Klunzinger,  K. Koh,  
 D. Kosenkov,  L. Koulias,  T. Kowalczyk,  C. M. Krauter,  A. Kunitsa,  
 Ka Un Lao,  A. Laurent,  K. V. Lawler,  Joonho Lee,  D. Lefrancois,  
 S. Lehtola,  D. S. Levine,  Yi-Pei Li,  You-Sheng Lin,  Fenglai Liu,  
 Kuan-Yu Liu,  E. Livshits,  M. Loipersberger,  A. Luenser,  P. Manohar,  
 E. Mansoor,  S. F. Manzer,  Shan-Ping Mao,  Yuezhi Mao,  N. Mardirossian,  
 A. V. Marenich,  T. Markovich,  L. A. Martinez-Martinez,  S. A. Maurer,  
 N. J. Mayhall,  S. C. McKenzie,  J.-M. Mewes,  P. Morgante,  A. F. Morrison,  
 J. W. Mullinax,  K. Nanda,  T. S. Nguyen-Beck,  R. Olivares-Amaya,  
 J. A. Parkhill,  S. K. Paul,  Zheng Pei,  T. M. Perrine,  F. Plasser,  
 P. Pokhilko,  S. Prager,  A. Prociuk,  E. Ramos,  B. Rana,  D. R. Rehn,  
 F. Rob,  M. Scheurer,  M. Schneider,  N. Sergueev,  S. M. Sharada,  
 S. Sharma,  D. W. Small,  T. Stauch,  C. J. Stein,  T. Stein,  Yu-Chuan Su,  
 S. P. Veccham,  A. J. W. Thom,  A. Tkatchenko,  T. Tsuchimochi,  
 N. M. Tubman,  L. Vogt,  M. L. Vidal,  O. Vydrov,  M. A. Watson,  J. Wenzel,  
 M. de Wergifosse,  T. A. Wesolowski,  A. White,  J. Witte,  A. Yamada,  
 Jun Yang,  K. Yao,  S. Yeganeh,  S. R. Yost,  Zhi-Qiang You,  A. Zech,  
 Igor Ying Zhang,  Xing Zhang,  Yan Zhao,  Ying Zhu,  B. R. Brooks,  
 G. K. L. Chan,  C. J. Cramer,  M. S. Gordon,  W. J. Hehre,  A. Klamt,  
 M. W. Schmidt,  C. D. Sherrill,  D. G. Truhlar,  A. Aspuru-Guzik,  R. Baer,  
 A. T. Bell,  N. A. Besley,  Jeng-Da Chai,  A. E. DePrince, III,  
 R. A. DiStasio Jr.,  A. Dreuw,  B. D. Dunietz,  T. R. Furlani,  
 Chao-Ping Hsu,  Yousung Jung,  Jing Kong,  D. S. Lambrecht,  WanZhen Liang,  
 C. Ochsenfeld,  V. A. Rassolov,  L. V. Slipchenko,  J. E. Subotnik,  
 T. Van Voorhis,  J. M. Herbert,  A. I. Krylov,  P. M. W. Gill,  M. Head-Gordon

 Contributors to earlier versions of Q-Chem not listed above: 
 R. D. Adamson,  B. Austin,  J. Baker,  G. J. O. Beran,  K. Brandhorst,  
 S. T. Brown,  E. F. C. Byrd,  A. K. Chakraborty,  C.-L. Cheng,  
 Siu Hung Chien,  D. M. Chipman,  D. L. Crittenden,  H. Dachsel,  
 R. J. Doerksen,  A. D. Dutoi,  L. Fusti-Molnar,  W. A. Goddard III,  
 A. Golubeva-Zadorozhnaya,  S. R. Gwaltney,  G. Hawkins,  A. Heyden,  
 S. Hirata,  G. Kedziora,  F. J. Keil,  C. Kelley,  Jihan Kim,  R. A. King,  
 R. Z. Khaliullin,  P. P. Korambath,  W. Kurlancheek,  A. M. Lee,  M. S. Lee,  
 S. V. Levchenko,  Ching Yeh Lin,  D. Liotard,  R. C. Lochan,  I. Lotan,  
 P. E. Maslen,  N. Nair,  D. P. O'Neill,  D. Neuhauser,  E. Neuscamman,  
 C. M. Oana,  R. Olson,  B. Peters,  R. Peverati,  P. A. Pieniazek,  
 Y. M. Rhee,  J. Ritchie,  M. A. Rohrdanz,  E. Rosta,  N. J. Russ,  
 H. F. Schaefer III,  N. E. Schultz,  N. Shenvi,  A. C. Simmonett,  A. Sodt,  
 D. Stuck,  K. S. Thanthiriwatte,  V. Vanovschi,  Tao Wang,  A. Warshel,  
 C. F. Williams,  Q. Wu,  X. Xu,  W. Zhang

 Please cite Q-Chem as follows:
 Y. Shao et al., Mol. Phys. 113, 184-215 (2015)
 DOI: 10.1080/00268976.2014.952696

 Q-Chem 5.2.2 for Intel X86 EM64T Linux

 Parts of Q-Chem use Armadillo 9.800.1 (Horizon Scraper).
 http://arma.sourceforge.net/

 Q-Chem begins on Sun Apr 12 04:20:47 2020  

Host: cn0821
0

     Scratch files written to /tmp/ypli/6720986.srvc1/qchem158521//
Warning:  Did not find "$end" marker in "$molecule" section

Checking the input file for inconsistencies... 	...done.

--------------------------------------------------------------
User input:
--------------------------------------------------------------
$rem
   JOBTYPE  sp
   EXCHANGE   omegaB97X-D
   BASIS   6-311+G(2df,2pd)
   max_scf_cycles   250
   geom_opt_max_cycles   1500
   basis2 6-31G*
   scf_algorithm rca_diis
   SYM_IGNORE  TRUE
   print_input   true
   geom_opt_dmax   80
   pop_mulliken false
   XC_GRID 000075000302
$end

$molecule
0 1
C       1.2646559289     -0.0465310261     0.2666854830
C       -0.0074313881     -0.1625505430     -0.5646113262
H       1.8769536940     -0.9453295195     0.1694650388
H       1.0282600724     0.0772991104     1.3254496082
H       1.8705737130     0.8057846238     -0.0424570795
C       -1.2602337593     0.1708589873     0.2366676651
H       -0.0899108021     -1.1757993766     -0.9649648757
H       0.0601107051     0.5025905836     -1.4287781879
H       -1.3664176318     -0.5005894312     1.0911029523
H       -2.1613304304     0.0834230207     -0.3711993455
H       -1.2152301623     1.1908442367     0.6236850865
--------------------------------------------------------------
 ----------------------------------------------------------------
             Standard Nuclear Orientation (Angstroms)
    I     Atom           X                Y                Z
 ----------------------------------------------------------------
    1      C       1.2646559289    -0.0465310261     0.2666854830
    2      C      -0.0074313881    -0.1625505430    -0.5646113262
    3      H       1.8769536940    -0.9453295195     0.1694650388
    4      H       1.0282600724     0.0772991104     1.3254496082
    5      H       1.8705737130     0.8057846238    -0.0424570795
    6      C      -1.2602337593     0.1708589873     0.2366676651
    7      H      -0.0899108021    -1.1757993766    -0.9649648757
    8      H       0.0601107051     0.5025905836    -1.4287781879
    9      H      -1.3664176318    -0.5005894312     1.0911029523
   10      H      -2.1613304304     0.0834230207    -0.3711993455
   11      H      -1.2152301623     1.1908442367     0.6236850865
 ----------------------------------------------------------------
 Nuclear Repulsion Energy =          82.75036673 hartrees
 There are       13 alpha and       13 beta electrons
 Requested basis set is 6-311+G(2df,2pd)
 There are 72 shells and 214 basis functions

 Total QAlloc Memory Limit   2000 MB
 Mega-Array Size       188 MB
 MEM_STATIC part       192 MB

                       Distance Matrix (Angstroms)
             C (  1)   C (  2)   H (  3)   H (  4)   H (  5)   C (  6)
   C (  2)  1.524048
   H (  3)  1.091879  2.168529
   H (  4)  1.091878  2.168528  1.761349
   H (  5)  1.090480  2.176516  1.763903  1.763903
   C (  6)  2.534409  1.524048  3.330516  2.536021  3.206711
   H (  7)  2.151060  1.092593  2.282237  2.840169  2.936187  2.151061
   H (  8)  2.151060  1.092593  2.819889  2.950247  2.300345  2.151061
   H (  9)  2.794348  2.168526  3.400980  2.474541  3.670107  1.091869
   H ( 10)  3.487287  2.176509  4.202189  3.612775  4.109274  1.090469
   H ( 11)  2.794348  2.168526  3.785651  2.601097  3.180283  1.091869
             H (  7)   H (  8)   H (  9)   H ( 10)
   H (  8)  1.747748
   H (  9)  2.512527  3.064499
   H ( 10)  2.495792  2.495791  1.763883
   H ( 11)  3.064499  2.512527  1.761330  1.763883
 
 A cutoff of  1.0D-09 yielded   2532 shell pairs
 There are     22566 function pairs (     27757 Cartesian)
 Smallest overlap matrix eigenvalue = 8.04E-05

 Scale SEOQF with 1.000000e-01/1.000000e-01/1.000000e-01

 Standard Electronic Orientation quadrupole field applied
 Nucleus-field energy     =     0.0000000006 hartrees
 Requested basis set is 6-31G(d)
 There are 28 shells and 58 basis functions
 A cutoff of  1.0D-09 yielded    400 shell pairs
 There are      1771 function pairs (      1966 Cartesian)
 Smallest overlap matrix eigenvalue = 6.39E-03
 Guess from superposition of atomic densities
 Warning:  Energy on first SCF cycle will be non-variational
 SAD guess density has 26.000000 electrons
 Long-range K will be added via erf
 Coulomb attenuation parameter = 0.2 bohr**(-1)
 A restricted hybrid HF-DFT SCF calculation will be
 performed using Relaxed Constraint Minimization + Pulay DIIS
 Exchange:     0.2220 Hartree-Fock + 1.0000 wB97X-D + LR-HF
 Correlation:  1.0000 wB97X-D
 Using Euler-Maclaurin-Lebedev (75,302) quadrature formula
 Dispersion:   Grimme D
 SCF converges when DIIS error is below 1.0E-04
 using 3 threads for integral computing
 -------------------------------------------------------
 OpenMP Integral computing Module                
 Release: version 1.0, May 2013, Q-Chem Inc. Pittsburgh 
 -------------------------------------------------------
 using 3 threads for integral computing
 -------------------------------------------------------
 OpenMP Integral computing Module                
 Release: version 1.0, May 2013, Q-Chem Inc. Pittsburgh 
 -------------------------------------------------------
 ---------------------------------------
  Cycle       Energy         DIIS Error
 ---------------------------------------
    1    -119.6223336665      1.00E-01
    2    -119.0618092627      9.03E-03
    3    -119.0829762847      2.46E-03
    4    -119.0969241884      1.68E-03
    5    -119.0976205327      2.66E-04 Done RCA. Switching to DIIS
    6    -119.0981313735      1.97E-04
    7    -119.0981481560      4.41E-06 Convergence criterion met
 ---------------------------------------
 SCF time:  CPU 26.94 s  wall 9.31 s
 SCF   energy in the small basis set = -119.09814816
 Total energy in the small basis set = -119.09814816
 ----------------------------------------------------
  Cycle       Energy    
 ----------------------------------------------------
    1     -16.5427734328     -1.65E+01
 Long-range K will be added via erf
 Coulomb attenuation parameter = 0.2 bohr**(-1)
 A restricted hybrid HF-DFT SCF calculation will be
 performed using Relaxed Constraint Minimization + Pulay DIIS
 Exchange:     0.2220 Hartree-Fock + 1.0000 wB97X-D + LR-HF
 Correlation:  1.0000 wB97X-D
 Using Euler-Maclaurin-Lebedev (75,302) quadrature formula
 Dispersion:   Grimme D
 SCF converges when DIIS error is below 1.0E-05
 Basis2 calculation detected. Using small basis as guess for larger.
 SCFMinFind is unable to tell whether the solution found is close.
 Resetting ReadMinima to 0 and attempting to follow guess.
 SCFMinFind following SCF Guess.
 using 3 threads for integral computing
 -------------------------------------------------------
 OpenMP Integral computing Module                
 Release: version 1.0, May 2013, Q-Chem Inc. Pittsburgh 
 -------------------------------------------------------
 using 3 threads for integral computing
 -------------------------------------------------------
 OpenMP Integral computing Module                
 Release: version 1.0, May 2013, Q-Chem Inc. Pittsburgh 
 -------------------------------------------------------
 ---------------------------------------
  Cycle       Energy         DIIS Error
 ---------------------------------------
    1    -119.1173798699      4.21E-03
    2    -119.1394127882      6.01E-04 Done RCA. Switching to DIIS
    3    -119.1402481309      4.22E-04
    4    -119.1412249560      4.54E-05
    5    -119.1412396746      1.02E-05
    6    -119.1412403761      3.94E-06 Convergence criterion met
 ---------------------------------------
 SCF time:  CPU 81.03 s  wall 27.38 s
 SCF   energy in the final basis set = -119.14124038
 Total energy in the final basis set = -119.14124038
 
 --------------------------------------------------------------
 
                    Orbital Energies (a.u.)
 --------------------------------------------------------------
 
 Alpha MOs
 -- Occupied --
-10.2727 -10.2653 -10.2636  -0.8811  -0.7768  -0.6776  -0.5448  -0.5254
 -0.4799  -0.4680  -0.4189  -0.4160  -0.4026
 -- Virtual --
  0.0697   0.0869   0.0911   0.1011   0.1223   0.1310   0.1326   0.1382
  0.1453   0.1661   0.1748   0.1903   0.2147   0.2403   0.2518   0.2597
  0.2911   0.3046   0.3126   0.3276   0.3352   0.3491   0.4563   0.4763
  0.4851   0.4981   0.5123   0.5191   0.5255   0.5480   0.5751   0.5865
  0.6198   0.6253   0.6308   0.6386   0.6501   0.6551   0.7039   0.7106
  0.7356   0.7719   0.8079   0.8458   0.8977   0.9224   0.9603   0.9793
  0.9869   1.0329   1.0810   1.1096   1.1406   1.1753   1.1852   1.2187
  1.2232   1.2348   1.2593   1.2757   1.2827   1.3012   1.3285   1.3675
  1.3916   1.4129   1.4350   1.4476   1.4527   1.4657   1.4681   1.5150
  1.5283   1.5491   1.5683   1.6015   1.6311   1.6534   1.6645   1.6777
  1.7436   2.3563   2.3790   2.4664   2.4689   2.5052   2.6377   2.6609
  2.6811   2.6929   2.8002   2.8073   2.8489   2.8818   2.9322   2.9349
  2.9404   2.9675   3.0139   3.0417   3.0511   3.0647   3.0735   3.1139
  3.1222   3.1474   3.1870   3.1950   3.1979   3.2386   3.2672   3.2913
  3.3123   3.3155   3.3387   3.3530   3.3597   3.4034   3.4251   3.4355
  3.4511   3.4829   3.5289   3.5486   3.5618   3.5974   3.6088   3.6175
  3.6406   3.6742   3.6994   3.7146   3.7333   3.7446   3.7907   3.8490
  3.8719   3.9268   3.9486   3.9674   4.0034   4.0228   4.0457   4.0687
  4.0964   4.1060   4.1180   4.1309   4.1528   4.1741   4.1953   4.2078
  4.2558   4.2748   4.2898   4.3142   4.3536   4.4141   4.4231   4.4727
  4.4984   4.5512   4.6038   4.6153   4.6860   4.8101   4.8391   4.8780
  4.9088   4.9368   4.9575   4.9858   5.0005   5.0695   5.0760   5.1433
  5.1493   5.2008   5.2478   5.2792   5.2907   5.2970   5.3481   5.3577
  5.3745   5.3927   5.4300   5.4685   5.5250   5.5460   5.6465   5.7215
  5.9865   6.3371   6.3818   6.4064   6.4299   6.4954  25.1364  25.4189
 25.4826
 --------------------------------------------------------------
 
 -----------------------------------------------------------------
                    Cartesian Multipole Moments
 -----------------------------------------------------------------
    Charge (ESU x 10^10)
                -0.0000
    Dipole Moment (Debye)
         X       0.0028      Y      -0.0225      Z      -0.0805
       Tot       0.0837
    Quadrupole Moments (Debye-Ang)
        XX     -22.2579     XY       0.0698     YY     -21.3226
        XZ      -0.0709     YZ      -0.1453     ZZ     -21.8201
    Octopole Moments (Debye-Ang^2)
       XXX      -0.3725    XXY      -0.1011    XYY       0.7037
       YYY       0.2279    XXZ      -1.2989    XYZ      -0.0683
       YYZ      -0.4336    XZZ      -0.3448    YZZ       0.2881
       ZZZ       0.1491
    Hexadecapole Moments (Debye-Ang^3)
      XXXX    -203.3724   XXXY       7.2080   XXYY     -40.4633
      XYYY       6.0114   YYYY     -46.0877   XXXZ       0.1022
      XXYZ      -1.5174   XYYZ      -1.3762   YYYZ      -2.3459
      XXZZ     -45.8395   XYZZ       2.9055   YYZZ     -19.0034
      XZZZ      -1.0928   YZZZ      -4.2886   ZZZZ     -68.3104
 -----------------------------------------------------------------
Archival summary:
1\1\cn0821\SP\ProcedureUnspecified\BasisUnspecified\38\r0852400\SunApr1204:21:282020SunApr1204:21:282020\0\\#,ProcedureUnspecified,BasisUnspecified,\\0,1\C\H,1,1.09259\H,1,1.09259,2,106.225\C,1,1.52405,2,109.48,3,-118.121,0\H,4,1.09048,1,111.632,2,128.035,0\H,4,1.09188,1,110.906,2,-111.666,0\H,4,1.09188,1,110.906,2,7.73694,0\C,1,1.52405,2,109.48,3,118.121,0\H,8,1.09047,1,111.633,2,-58.0358,0\H,8,1.09187,1,110.906,2,62.2628,0\H,8,1.09187,1,110.906,2,-178.334,0\\\@

 Total job time:  40.74s(wall), 112.85s(cpu) 
 Sun Apr 12 04:21:28 2020

        *************************************************************
        *                                                           *
        *  Thank you very much for using Q-Chem.  Have a nice day.  *
        *                                                           *
        *************************************************************


