                  Welcome to Q-Chem
     A Quantum Leap Into The Future Of Chemistry


 Q-Chem 5.2 (devel), Q-Chem, Inc., Pleasanton, CA (2019)

 Yihan Shao,  Zhengting Gan,  E. Epifanovsky,  A. T. B. Gilbert,  M. Wormit,  
 J. Kussmann,  A. W. Lange,  A. Behn,  Jia Deng,  Xintian Feng,  D. Ghosh,  
 M. Goldey,  P. R. Horn,  L. D. Jacobson,  I. Kaliman,  T. Kus,  A. Landau,  
 Jie Liu,  E. I. Proynov,  R. M. Richard,  R. P. Steele,  E. J. Sundstrom,  
 H. L. Woodcock III,  P. M. Zimmerman,  D. Zuev,  B. Alam,  B. Albrecht,  
 E. Alguire,  S. A. Baeppler,  D. Barton,  Z. Benda,  Y. A. Bernard,  
 E. J. Berquist,  K. B. Bravaya,  H. Burton,  K. Carter-Fenk,  D. Casanova,  
 Chun-Min Chang,  Yunqing Chen,  A. Chien,  K. D. Closser,  M. P. Coons,  
 S. Coriani,  S. Dasgupta,  A. L. Dempwolff,  M. Diedenhofen,  Hainam Do,  
 R. G. Edgar,  Po-Tung Fang,  S. Faraji,  S. Fatehi,  Qingguo Feng,  
 J. Fosso-Tande,  J. Gayvert,  Qinghui Ge,  A. Ghysels,  G. Gidofalvi,  
 J. Gomes,  J. Gonthier,  A. Gunina,  D. Hait,  M. W. D. Hanson-Heine,  
 P. H. P. Harbach,  A. W. Hauser,  M. F. Herbst,  J. E. Herr,  
 E. G. Hohenstein,  Z. C. Holden,  Kerwin Hui,  B. C. Huynh,  T.-C. Jagau,  
 Hyunjun Ji,  B. Kaduk,  K. Khistyaev,  Jaehoon Kim,  P. Klunzinger,  K. Koh,  
 D. Kosenkov,  L. Koulias,  T. Kowalczyk,  C. M. Krauter,  A. Kunitsa,  
 Ka Un Lao,  A. Laurent,  K. V. Lawler,  Joonho Lee,  D. Lefrancois,  
 S. Lehtola,  D. S. Levine,  Yi-Pei Li,  You-Sheng Lin,  Fenglai Liu,  
 Kuan-Yu Liu,  E. Livshits,  M. Loipersberger,  A. Luenser,  P. Manohar,  
 E. Mansoor,  S. F. Manzer,  Shan-Ping Mao,  Yuezhi Mao,  N. Mardirossian,  
 A. V. Marenich,  T. Markovich,  L. A. Martinez-Martinez,  S. A. Maurer,  
 N. J. Mayhall,  S. C. McKenzie,  J.-M. Mewes,  P. Morgante,  A. F. Morrison,  
 J. W. Mullinax,  K. Nanda,  T. S. Nguyen-Beck,  R. Olivares-Amaya,  
 J. A. Parkhill,  S. K. Paul,  Zheng Pei,  T. M. Perrine,  F. Plasser,  
 P. Pokhilko,  S. Prager,  A. Prociuk,  E. Ramos,  B. Rana,  D. R. Rehn,  
 F. Rob,  M. Scheurer,  M. Schneider,  N. Sergueev,  S. M. Sharada,  
 S. Sharma,  D. W. Small,  T. Stauch,  C. J. Stein,  T. Stein,  Yu-Chuan Su,  
 S. P. Veccham,  A. J. W. Thom,  A. Tkatchenko,  T. Tsuchimochi,  
 N. M. Tubman,  L. Vogt,  M. L. Vidal,  O. Vydrov,  M. A. Watson,  J. Wenzel,  
 M. de Wergifosse,  T. A. Wesolowski,  A. White,  J. Witte,  A. Yamada,  
 Jun Yang,  K. Yao,  S. Yeganeh,  S. R. Yost,  Zhi-Qiang You,  A. Zech,  
 Igor Ying Zhang,  Xing Zhang,  Yan Zhao,  Ying Zhu,  B. R. Brooks,  
 G. K. L. Chan,  C. J. Cramer,  M. S. Gordon,  W. J. Hehre,  A. Klamt,  
 M. W. Schmidt,  C. D. Sherrill,  D. G. Truhlar,  A. Aspuru-Guzik,  R. Baer,  
 A. T. Bell,  N. A. Besley,  Jeng-Da Chai,  A. E. DePrince, III,  
 R. A. DiStasio Jr.,  A. Dreuw,  B. D. Dunietz,  T. R. Furlani,  
 Chao-Ping Hsu,  Yousung Jung,  Jing Kong,  D. S. Lambrecht,  WanZhen Liang,  
 C. Ochsenfeld,  V. A. Rassolov,  L. V. Slipchenko,  J. E. Subotnik,  
 T. Van Voorhis,  J. M. Herbert,  A. I. Krylov,  P. M. W. Gill,  M. Head-Gordon

 Contributors to earlier versions of Q-Chem not listed above: 
 R. D. Adamson,  B. Austin,  J. Baker,  G. J. O. Beran,  K. Brandhorst,  
 S. T. Brown,  E. F. C. Byrd,  A. K. Chakraborty,  C.-L. Cheng,  
 Siu Hung Chien,  D. M. Chipman,  D. L. Crittenden,  H. Dachsel,  
 R. J. Doerksen,  A. D. Dutoi,  L. Fusti-Molnar,  W. A. Goddard III,  
 A. Golubeva-Zadorozhnaya,  S. R. Gwaltney,  G. Hawkins,  A. Heyden,  
 S. Hirata,  G. Kedziora,  F. J. Keil,  C. Kelley,  Jihan Kim,  R. A. King,  
 R. Z. Khaliullin,  P. P. Korambath,  W. Kurlancheek,  A. M. Lee,  M. S. Lee,  
 S. V. Levchenko,  Ching Yeh Lin,  D. Liotard,  R. C. Lochan,  I. Lotan,  
 P. E. Maslen,  N. Nair,  D. P. O'Neill,  D. Neuhauser,  E. Neuscamman,  
 C. M. Oana,  R. Olson,  B. Peters,  R. Peverati,  P. A. Pieniazek,  
 Y. M. Rhee,  J. Ritchie,  M. A. Rohrdanz,  E. Rosta,  N. J. Russ,  
 H. F. Schaefer III,  N. E. Schultz,  N. Shenvi,  A. C. Simmonett,  A. Sodt,  
 D. Stuck,  K. S. Thanthiriwatte,  V. Vanovschi,  Tao Wang,  A. Warshel,  
 C. F. Williams,  Q. Wu,  X. Xu,  W. Zhang

 Please cite Q-Chem as follows:
 Y. Shao et al., Mol. Phys. 113, 184-215 (2015)
 DOI: 10.1080/00268976.2014.952696

 Q-Chem 5.2.2 for Intel X86 EM64T Linux

 Parts of Q-Chem use Armadillo 9.800.1 (Horizon Scraper).
 http://arma.sourceforge.net/

 Q-Chem begins on Sun Apr 12 05:05:22 2020  

Host: cn0821
0

     Scratch files written to /tmp/ypli/6721342.srvc1/qchem165518//
Warning:  Did not find "$end" marker in "$molecule" section

Checking the input file for inconsistencies... 	...done.

--------------------------------------------------------------
User input:
--------------------------------------------------------------
$rem
   JOBTYPE  sp
   EXCHANGE   omegaB97X-D
   BASIS   6-311+G(2df,2pd)
   max_scf_cycles   250
   geom_opt_max_cycles   1500
   basis2 6-31G*
   scf_algorithm rca_diis
   SYM_IGNORE  TRUE
   print_input   true
   geom_opt_dmax   80
   pop_mulliken false
   XC_GRID 000075000302
$end

$molecule
0 1
C       1.2580946997     -0.1944439932     0.2297354562
C       0.0096802184     0.1850681979     -0.5577643856
H       1.2003242207     -1.2279013245     0.5773078939
H       1.3724856664     0.4423189353     1.1092954390
H       2.1603153824     -0.0949531580     -0.3746005468
C       -1.2638968055     0.0530562273     0.2688525216
H       -0.0659917906     -0.4454999744     -1.4468183424
H       0.1048419492     1.2118401684     -0.9189332881
H       -1.0378345411     0.0626723244     1.3370311308
H       -1.7925535816     -0.8746409953     0.0473767806
H       -1.9454654785     0.8824842581     0.0695623596
--------------------------------------------------------------
 ----------------------------------------------------------------
             Standard Nuclear Orientation (Angstroms)
    I     Atom           X                Y                Z
 ----------------------------------------------------------------
    1      C       1.2580946997    -0.1944439932     0.2297354562
    2      C       0.0096802184     0.1850681979    -0.5577643856
    3      H       1.2003242207    -1.2279013245     0.5773078939
    4      H       1.3724856664     0.4423189353     1.1092954390
    5      H       2.1603153824    -0.0949531580    -0.3746005468
    6      C      -1.2638968055     0.0530562273     0.2688525216
    7      H      -0.0659917906    -0.4454999744    -1.4468183424
    8      H       0.1048419492     1.2118401684    -0.9189332881
    9      H      -1.0378345411     0.0626723244     1.3370311308
   10      H      -1.7925535816    -0.8746409953     0.0473767806
   11      H      -1.9454654785     0.8824842581     0.0695623596
 ----------------------------------------------------------------
 Nuclear Repulsion Energy =          82.74488624 hartrees
 There are       13 alpha and       13 beta electrons
 Requested basis set is 6-311+G(2df,2pd)
 There are 72 shells and 214 basis functions

 Total QAlloc Memory Limit   2000 MB
 Mega-Array Size       188 MB
 MEM_STATIC part       192 MB

                       Distance Matrix (Angstroms)
             C (  1)   C (  2)   H (  3)   H (  4)   H (  5)   C (  6)
   C (  2)  1.524049
   H (  3)  1.091869  2.168526
   H (  4)  1.091869  2.168526  1.761331
   H (  5)  1.090469  2.176509  1.763883  1.763883
   C (  6)  2.534409  1.524048  2.794348  2.794348  3.487287
   H (  7)  2.151062  1.092593  2.512528  3.064500  2.495792  2.151060
   H (  8)  2.151062  1.092593  3.064500  2.512528  2.495792  2.151060
   H (  9)  2.561934  2.168529  2.692975  2.450640  3.630798  1.091880
   H ( 10)  3.130875  2.176517  3.059892  3.588806  4.051068  1.090482
   H ( 11)  3.383523  2.168530  3.821979  3.504795  4.243831  1.091881
             H (  7)   H (  8)   H (  9)   H ( 10)
   H (  8)  1.747748
   H (  9)  2.992079  2.777710
   H ( 10)  2.323316  2.981152  1.763906
   H ( 11)  2.755971  2.299861  1.761352  1.763906
 
 A cutoff of  1.0D-09 yielded   2532 shell pairs
 There are     22522 function pairs (     27692 Cartesian)
 Smallest overlap matrix eigenvalue = 8.17E-05

 Scale SEOQF with 1.000000e-01/1.000000e-01/1.000000e-01

 Standard Electronic Orientation quadrupole field applied
 Nucleus-field energy     =     0.0000000007 hartrees
 Requested basis set is 6-31G(d)
 There are 28 shells and 58 basis functions
 A cutoff of  1.0D-09 yielded    402 shell pairs
 There are      1773 function pairs (      1968 Cartesian)
 Smallest overlap matrix eigenvalue = 6.47E-03
 Guess from superposition of atomic densities
 Warning:  Energy on first SCF cycle will be non-variational
 SAD guess density has 26.000000 electrons
 Long-range K will be added via erf
 Coulomb attenuation parameter = 0.2 bohr**(-1)
 A restricted hybrid HF-DFT SCF calculation will be
 performed using Relaxed Constraint Minimization + Pulay DIIS
 Exchange:     0.2220 Hartree-Fock + 1.0000 wB97X-D + LR-HF
 Correlation:  1.0000 wB97X-D
 Using Euler-Maclaurin-Lebedev (75,302) quadrature formula
 Dispersion:   Grimme D
 SCF converges when DIIS error is below 1.0E-04
 using 3 threads for integral computing
 -------------------------------------------------------
 OpenMP Integral computing Module                
 Release: version 1.0, May 2013, Q-Chem Inc. Pittsburgh 
 -------------------------------------------------------
 using 3 threads for integral computing
 -------------------------------------------------------
 OpenMP Integral computing Module                
 Release: version 1.0, May 2013, Q-Chem Inc. Pittsburgh 
 -------------------------------------------------------
 ---------------------------------------
  Cycle       Energy         DIIS Error
 ---------------------------------------
    1    -119.6214939756      1.00E-01
    2    -119.0628021720      9.02E-03
    3    -119.0839521196      2.46E-03
    4    -119.0978861129      1.68E-03
    5    -119.0985824694      2.66E-04 Done RCA. Switching to DIIS
    6    -119.0990931261      1.97E-04
    7    -119.0991099269      4.43E-06 Convergence criterion met
 ---------------------------------------
 SCF time:  CPU 26.46 s  wall 9.13 s
 SCF   energy in the small basis set = -119.09910993
 Total energy in the small basis set = -119.09910993
 ----------------------------------------------------
  Cycle       Energy    
 ----------------------------------------------------
    1     -16.5420827671     -1.65E+01
 Long-range K will be added via erf
 Coulomb attenuation parameter = 0.2 bohr**(-1)
 A restricted hybrid HF-DFT SCF calculation will be
 performed using Relaxed Constraint Minimization + Pulay DIIS
 Exchange:     0.2220 Hartree-Fock + 1.0000 wB97X-D + LR-HF
 Correlation:  1.0000 wB97X-D
 Using Euler-Maclaurin-Lebedev (75,302) quadrature formula
 Dispersion:   Grimme D
 SCF converges when DIIS error is below 1.0E-05
 Basis2 calculation detected. Using small basis as guess for larger.
 SCFMinFind is unable to tell whether the solution found is close.
 Resetting ReadMinima to 0 and attempting to follow guess.
 SCFMinFind following SCF Guess.
 using 3 threads for integral computing
 -------------------------------------------------------
 OpenMP Integral computing Module                
 Release: version 1.0, May 2013, Q-Chem Inc. Pittsburgh 
 -------------------------------------------------------
 using 3 threads for integral computing
 -------------------------------------------------------
 OpenMP Integral computing Module                
 Release: version 1.0, May 2013, Q-Chem Inc. Pittsburgh 
 -------------------------------------------------------
 ---------------------------------------
  Cycle       Energy         DIIS Error
 ---------------------------------------
    1    -119.1183133913      4.21E-03
    2    -119.1403459765      6.00E-04 Done RCA. Switching to DIIS
    3    -119.1411803594      4.21E-04
    4    -119.1421521867      4.54E-05
    5    -119.1421669010      1.02E-05
    6    -119.1421675962      3.92E-06 Convergence criterion met
 ---------------------------------------
 SCF time:  CPU 81.25 s  wall 27.43 s
 SCF   energy in the final basis set = -119.14216760
 Total energy in the final basis set = -119.14216760
 
 --------------------------------------------------------------
 
                    Orbital Energies (a.u.)
 --------------------------------------------------------------
 
 Alpha MOs
 -- Occupied --
-10.2730 -10.2652 -10.2639  -0.8811  -0.7768  -0.6776  -0.5450  -0.5251
 -0.4806  -0.4670  -0.4188  -0.4163  -0.4036
 -- Virtual --
  0.0696   0.0867   0.0911   0.1004   0.1230   0.1311   0.1325   0.1387
  0.1454   0.1672   0.1744   0.1905   0.2171   0.2392   0.2530   0.2577
  0.2899   0.3023   0.3112   0.3285   0.3335   0.3480   0.4570   0.4735
  0.4797   0.5003   0.5123   0.5191   0.5278   0.5561   0.5794   0.5877
  0.6147   0.6243   0.6316   0.6397   0.6523   0.6556   0.7054   0.7115
  0.7338   0.7684   0.8077   0.8503   0.8903   0.9172   0.9440   0.9703
  0.9946   1.0235   1.0926   1.1112   1.1535   1.1627   1.1880   1.2139
  1.2363   1.2393   1.2650   1.2690   1.2795   1.3152   1.3278   1.3699
  1.3782   1.3949   1.4294   1.4483   1.4566   1.4636   1.4679   1.5147
  1.5231   1.5499   1.5717   1.5984   1.6324   1.6474   1.6662   1.6867
  1.7429   2.3556   2.3958   2.4683   2.4715   2.5156   2.6298   2.6465
  2.6658   2.6853   2.8015   2.8132   2.8402   2.8899   2.9302   2.9330
  2.9387   2.9641   3.0109   3.0419   3.0452   3.0661   3.0778   3.1100
  3.1236   3.1467   3.1798   3.1922   3.1971   3.2402   3.2710   3.2927
  3.3043   3.3172   3.3422   3.3601   3.3667   3.4024   3.4248   3.4391
  3.4463   3.4772   3.5154   3.5396   3.5664   3.5886   3.6138   3.6173
  3.6413   3.6538   3.6975   3.7081   3.7487   3.7622   3.8172   3.8590
  3.8758   3.9261   3.9494   3.9765   4.0047   4.0214   4.0518   4.0699
  4.0897   4.1002   4.1181   4.1315   4.1465   4.1741   4.2004   4.2203
  4.2443   4.2704   4.2853   4.3119   4.3505   4.4144   4.4173   4.4644
  4.4906   4.5305   4.5920   4.6109   4.6675   4.8141   4.8381   4.9033
  4.9140   4.9425   4.9707   4.9881   5.0016   5.0594   5.0673   5.1315
  5.1454   5.2068   5.2358   5.2809   5.2827   5.3049   5.3475   5.3625
  5.3712   5.3937   5.4218   5.4887   5.5298   5.5325   5.6442   5.7199
  5.9715   6.3477   6.3798   6.4049   6.4270   6.4932  25.1471  25.4173
 25.4724
 --------------------------------------------------------------
 
 -----------------------------------------------------------------
                    Cartesian Multipole Moments
 -----------------------------------------------------------------
    Charge (ESU x 10^10)
                 0.0000
    Dipole Moment (Debye)
         X      -0.0021      Y       0.0251      Z      -0.0813
       Tot       0.0852
    Quadrupole Moments (Debye-Ang)
        XX     -22.2420     XY       0.0744     YY     -21.3468
        XZ       0.0601     YZ       0.1605     ZZ     -21.8048
    Octopole Moments (Debye-Ang^2)
       XXX       0.3467    XXY       0.2045    XYY      -0.7097
       YYY      -0.5077    XXZ      -1.2786    XYZ       0.0317
       YYZ      -0.4676    XZZ       0.3595    YZZ      -0.1604
       ZZZ       0.1480
    Hexadecapole Moments (Debye-Ang^3)
      XXXX    -202.8215   XXXY       7.7641   XXYY     -40.5946
      XYYY       7.2755   YYYY     -46.8726   XXXZ       0.2136
      XXYZ       1.3383   XYYZ       1.4487   YYYZ       2.5436
      XXZZ     -45.6945   XYZZ       3.0980   YYZZ     -19.2814
      XZZZ       1.4067   YZZZ       5.0100   ZZZZ     -67.4785
 -----------------------------------------------------------------
Archival summary:
1\1\cn0821\SP\ProcedureUnspecified\BasisUnspecified\38\r0852400\SunApr1205:06:022020SunApr1205:06:022020\0\\#,ProcedureUnspecified,BasisUnspecified,\\0,1\C\H,1,1.09259\H,1,1.09259,2,106.225\C,1,1.52405,2,109.48,3,-118.121,0\H,4,1.09048,1,111.632,2,138.035,0\H,4,1.09188,1,110.906,2,-101.666,0\H,4,1.09188,1,110.906,2,17.7369,0\C,1,1.52405,2,109.48,3,118.121,0\H,8,1.09047,1,111.633,2,-58.0358,0\H,8,1.09187,1,110.906,2,-178.334,0\H,8,1.09187,1,110.906,2,62.2628,0\\\@

 Total job time:  40.47s(wall), 112.48s(cpu) 
 Sun Apr 12 05:06:02 2020

        *************************************************************
        *                                                           *
        *  Thank you very much for using Q-Chem.  Have a nice day.  *
        *                                                           *
        *************************************************************


