                  Welcome to Q-Chem
     A Quantum Leap Into The Future Of Chemistry


 Q-Chem 5.2 (devel), Q-Chem, Inc., Pleasanton, CA (2019)

 Yihan Shao,  Zhengting Gan,  E. Epifanovsky,  A. T. B. Gilbert,  M. Wormit,  
 J. Kussmann,  A. W. Lange,  A. Behn,  Jia Deng,  Xintian Feng,  D. Ghosh,  
 M. Goldey,  P. R. Horn,  L. D. Jacobson,  I. Kaliman,  T. Kus,  A. Landau,  
 Jie Liu,  E. I. Proynov,  R. M. Richard,  R. P. Steele,  E. J. Sundstrom,  
 H. L. Woodcock III,  P. M. Zimmerman,  D. Zuev,  B. Alam,  B. Albrecht,  
 E. Alguire,  S. A. Baeppler,  D. Barton,  Z. Benda,  Y. A. Bernard,  
 E. J. Berquist,  K. B. Bravaya,  H. Burton,  K. Carter-Fenk,  D. Casanova,  
 Chun-Min Chang,  Yunqing Chen,  A. Chien,  K. D. Closser,  M. P. Coons,  
 S. Coriani,  S. Dasgupta,  A. L. Dempwolff,  M. Diedenhofen,  Hainam Do,  
 R. G. Edgar,  Po-Tung Fang,  S. Faraji,  S. Fatehi,  Qingguo Feng,  
 J. Fosso-Tande,  J. Gayvert,  Qinghui Ge,  A. Ghysels,  G. Gidofalvi,  
 J. Gomes,  J. Gonthier,  A. Gunina,  D. Hait,  M. W. D. Hanson-Heine,  
 P. H. P. Harbach,  A. W. Hauser,  M. F. Herbst,  J. E. Herr,  
 E. G. Hohenstein,  Z. C. Holden,  Kerwin Hui,  B. C. Huynh,  T.-C. Jagau,  
 Hyunjun Ji,  B. Kaduk,  K. Khistyaev,  Jaehoon Kim,  P. Klunzinger,  K. Koh,  
 D. Kosenkov,  L. Koulias,  T. Kowalczyk,  C. M. Krauter,  A. Kunitsa,  
 Ka Un Lao,  A. Laurent,  K. V. Lawler,  Joonho Lee,  D. Lefrancois,  
 S. Lehtola,  D. S. Levine,  Yi-Pei Li,  You-Sheng Lin,  Fenglai Liu,  
 Kuan-Yu Liu,  E. Livshits,  M. Loipersberger,  A. Luenser,  P. Manohar,  
 E. Mansoor,  S. F. Manzer,  Shan-Ping Mao,  Yuezhi Mao,  N. Mardirossian,  
 A. V. Marenich,  T. Markovich,  L. A. Martinez-Martinez,  S. A. Maurer,  
 N. J. Mayhall,  S. C. McKenzie,  J.-M. Mewes,  P. Morgante,  A. F. Morrison,  
 J. W. Mullinax,  K. Nanda,  T. S. Nguyen-Beck,  R. Olivares-Amaya,  
 J. A. Parkhill,  S. K. Paul,  Zheng Pei,  T. M. Perrine,  F. Plasser,  
 P. Pokhilko,  S. Prager,  A. Prociuk,  E. Ramos,  B. Rana,  D. R. Rehn,  
 F. Rob,  M. Scheurer,  M. Schneider,  N. Sergueev,  S. M. Sharada,  
 S. Sharma,  D. W. Small,  T. Stauch,  C. J. Stein,  T. Stein,  Yu-Chuan Su,  
 S. P. Veccham,  A. J. W. Thom,  A. Tkatchenko,  T. Tsuchimochi,  
 N. M. Tubman,  L. Vogt,  M. L. Vidal,  O. Vydrov,  M. A. Watson,  J. Wenzel,  
 M. de Wergifosse,  T. A. Wesolowski,  A. White,  J. Witte,  A. Yamada,  
 Jun Yang,  K. Yao,  S. Yeganeh,  S. R. Yost,  Zhi-Qiang You,  A. Zech,  
 Igor Ying Zhang,  Xing Zhang,  Yan Zhao,  Ying Zhu,  B. R. Brooks,  
 G. K. L. Chan,  C. J. Cramer,  M. S. Gordon,  W. J. Hehre,  A. Klamt,  
 M. W. Schmidt,  C. D. Sherrill,  D. G. Truhlar,  A. Aspuru-Guzik,  R. Baer,  
 A. T. Bell,  N. A. Besley,  Jeng-Da Chai,  A. E. DePrince, III,  
 R. A. DiStasio Jr.,  A. Dreuw,  B. D. Dunietz,  T. R. Furlani,  
 Chao-Ping Hsu,  Yousung Jung,  Jing Kong,  D. S. Lambrecht,  WanZhen Liang,  
 C. Ochsenfeld,  V. A. Rassolov,  L. V. Slipchenko,  J. E. Subotnik,  
 T. Van Voorhis,  J. M. Herbert,  A. I. Krylov,  P. M. W. Gill,  M. Head-Gordon

 Contributors to earlier versions of Q-Chem not listed above: 
 R. D. Adamson,  B. Austin,  J. Baker,  G. J. O. Beran,  K. Brandhorst,  
 S. T. Brown,  E. F. C. Byrd,  A. K. Chakraborty,  C.-L. Cheng,  
 Siu Hung Chien,  D. M. Chipman,  D. L. Crittenden,  H. Dachsel,  
 R. J. Doerksen,  A. D. Dutoi,  L. Fusti-Molnar,  W. A. Goddard III,  
 A. Golubeva-Zadorozhnaya,  S. R. Gwaltney,  G. Hawkins,  A. Heyden,  
 S. Hirata,  G. Kedziora,  F. J. Keil,  C. Kelley,  Jihan Kim,  R. A. King,  
 R. Z. Khaliullin,  P. P. Korambath,  W. Kurlancheek,  A. M. Lee,  M. S. Lee,  
 S. V. Levchenko,  Ching Yeh Lin,  D. Liotard,  R. C. Lochan,  I. Lotan,  
 P. E. Maslen,  N. Nair,  D. P. O'Neill,  D. Neuhauser,  E. Neuscamman,  
 C. M. Oana,  R. Olson,  B. Peters,  R. Peverati,  P. A. Pieniazek,  
 Y. M. Rhee,  J. Ritchie,  M. A. Rohrdanz,  E. Rosta,  N. J. Russ,  
 H. F. Schaefer III,  N. E. Schultz,  N. Shenvi,  A. C. Simmonett,  A. Sodt,  
 D. Stuck,  K. S. Thanthiriwatte,  V. Vanovschi,  Tao Wang,  A. Warshel,  
 C. F. Williams,  Q. Wu,  X. Xu,  W. Zhang

 Please cite Q-Chem as follows:
 Y. Shao et al., Mol. Phys. 113, 184-215 (2015)
 DOI: 10.1080/00268976.2014.952696

 Q-Chem 5.2.2 for Intel X86 EM64T Linux

 Parts of Q-Chem use Armadillo 9.800.1 (Horizon Scraper).
 http://arma.sourceforge.net/

 Q-Chem begins on Sun Apr 12 05:10:46 2020  

Host: cn0821
0

     Scratch files written to /tmp/ypli/6721342.srvc1/qchem166349//
Warning:  Did not find "$end" marker in "$molecule" section

Checking the input file for inconsistencies... 	...done.

--------------------------------------------------------------
User input:
--------------------------------------------------------------
$rem
   JOBTYPE  sp
   EXCHANGE   omegaB97X-D
   BASIS   6-311+G(2df,2pd)
   max_scf_cycles   250
   geom_opt_max_cycles   1500
   basis2 6-31G*
   scf_algorithm rca_diis
   SYM_IGNORE  TRUE
   print_input   true
   geom_opt_dmax   80
   pop_mulliken false
   XC_GRID 000075000302
$end

$molecule
0 1
C       1.2307393518     -0.3682128822     0.1433331123
C       0.0374255053     0.3521475151     -0.4729550703
H       1.0664139568     -1.4474581168     0.1635341457
H       1.3943720727     -0.0412616502     1.1721714962
H       2.1471270425     -0.1800372217     -0.4169760362
C       -1.2549321000     0.1025034842     0.2952969631
H       -0.0869315684     0.0301323980     -1.5095861854
H       0.2384973959     1.4254848071     -0.5087270706
H       -1.4889402245     0.9455759943     0.9485208005
H       -1.1876756529     -0.7921210843     0.9152214061
H       -2.0960958399     -0.0267525776     -0.3887885425
--------------------------------------------------------------
 ----------------------------------------------------------------
             Standard Nuclear Orientation (Angstroms)
    I     Atom           X                Y                Z
 ----------------------------------------------------------------
    1      C       1.2307393518    -0.3682128822     0.1433331123
    2      C       0.0374255053     0.3521475151    -0.4729550703
    3      H       1.0664139568    -1.4474581168     0.1635341457
    4      H       1.3943720727    -0.0412616502     1.1721714962
    5      H       2.1471270425    -0.1800372217    -0.4169760362
    6      C      -1.2549321000     0.1025034842     0.2952969631
    7      H      -0.0869315684     0.0301323980    -1.5095861854
    8      H       0.2384973959     1.4254848071    -0.5087270706
    9      H      -1.4889402245     0.9455759943     0.9485208005
   10      H      -1.1876756529    -0.7921210843     0.9152214061
   11      H      -2.0960958399    -0.0267525776    -0.3887885425
 ----------------------------------------------------------------
 Nuclear Repulsion Energy =          82.73855808 hartrees
 There are       13 alpha and       13 beta electrons
 Requested basis set is 6-311+G(2df,2pd)
 There are 72 shells and 214 basis functions

 Total QAlloc Memory Limit   2000 MB
 Mega-Array Size       188 MB
 MEM_STATIC part       192 MB

                       Distance Matrix (Angstroms)
             C (  1)   C (  2)   H (  3)   H (  4)   H (  5)   C (  6)
   C (  2)  1.524050
   H (  3)  1.091871  2.168529
   H (  4)  1.091871  2.168529  1.761333
   H (  5)  1.090469  2.176510  1.763885  1.763885
   C (  6)  2.534409  1.524048  2.794350  2.794350  3.487287
   H (  7)  2.151064  1.092594  2.512531  3.064504  2.495794  2.151062
   H (  8)  2.151064  1.092594  3.064504  2.512531  2.495794  2.151062
   H (  9)  3.125864  2.168535  3.587848  3.055709  4.043831  1.091894
   H ( 10)  2.573760  2.176524  2.464837  2.701256  3.642843  1.090497
   H ( 11)  3.386382  2.168539  3.510688  3.823633  4.246084  1.091896
             H (  7)   H (  8)   H (  9)   H ( 10)
   H (  8)  1.747750
   H (  9)  2.974215  2.310395
   H ( 10)  2.787011  2.996560  1.763933
   H ( 11)  2.301340  2.752036  1.761379  1.763933
 
 A cutoff of  1.0D-09 yielded   2532 shell pairs
 There are     22522 function pairs (     27692 Cartesian)
 Smallest overlap matrix eigenvalue = 8.17E-05

 Scale SEOQF with 1.000000e-01/1.000000e-01/1.000000e-01

 Standard Electronic Orientation quadrupole field applied
 Nucleus-field energy     =     0.0000000009 hartrees
 Requested basis set is 6-31G(d)
 There are 28 shells and 58 basis functions
 A cutoff of  1.0D-09 yielded    402 shell pairs
 There are      1773 function pairs (      1968 Cartesian)
 Smallest overlap matrix eigenvalue = 6.49E-03
 Guess from superposition of atomic densities
 Warning:  Energy on first SCF cycle will be non-variational
 SAD guess density has 26.000000 electrons
 Long-range K will be added via erf
 Coulomb attenuation parameter = 0.2 bohr**(-1)
 A restricted hybrid HF-DFT SCF calculation will be
 performed using Relaxed Constraint Minimization + Pulay DIIS
 Exchange:     0.2220 Hartree-Fock + 1.0000 wB97X-D + LR-HF
 Correlation:  1.0000 wB97X-D
 Using Euler-Maclaurin-Lebedev (75,302) quadrature formula
 Dispersion:   Grimme D
 SCF converges when DIIS error is below 1.0E-04
 using 3 threads for integral computing
 -------------------------------------------------------
 OpenMP Integral computing Module                
 Release: version 1.0, May 2013, Q-Chem Inc. Pittsburgh 
 -------------------------------------------------------
 using 3 threads for integral computing
 -------------------------------------------------------
 OpenMP Integral computing Module                
 Release: version 1.0, May 2013, Q-Chem Inc. Pittsburgh 
 -------------------------------------------------------
 ---------------------------------------
  Cycle       Energy         DIIS Error
 ---------------------------------------
    1    -119.6212288702      1.00E-01
    2    -119.0627616114      9.03E-03
    3    -119.0839125278      2.45E-03
    4    -119.0978564534      1.68E-03
    5    -119.0985515736      2.66E-04 Done RCA. Switching to DIIS
    6    -119.0990614872      1.97E-04
    7    -119.0990782314      4.42E-06 Convergence criterion met
 ---------------------------------------
 SCF time:  CPU 26.63 s  wall 9.13 s
 SCF   energy in the small basis set = -119.09907823
 Total energy in the small basis set = -119.09907823
 ----------------------------------------------------
  Cycle       Energy    
 ----------------------------------------------------
    1     -16.5420520640     -1.65E+01
 Long-range K will be added via erf
 Coulomb attenuation parameter = 0.2 bohr**(-1)
 A restricted hybrid HF-DFT SCF calculation will be
 performed using Relaxed Constraint Minimization + Pulay DIIS
 Exchange:     0.2220 Hartree-Fock + 1.0000 wB97X-D + LR-HF
 Correlation:  1.0000 wB97X-D
 Using Euler-Maclaurin-Lebedev (75,302) quadrature formula
 Dispersion:   Grimme D
 SCF converges when DIIS error is below 1.0E-05
 Basis2 calculation detected. Using small basis as guess for larger.
 SCFMinFind is unable to tell whether the solution found is close.
 Resetting ReadMinima to 0 and attempting to follow guess.
 SCFMinFind following SCF Guess.
 using 3 threads for integral computing
 -------------------------------------------------------
 OpenMP Integral computing Module                
 Release: version 1.0, May 2013, Q-Chem Inc. Pittsburgh 
 -------------------------------------------------------
 using 3 threads for integral computing
 -------------------------------------------------------
 OpenMP Integral computing Module                
 Release: version 1.0, May 2013, Q-Chem Inc. Pittsburgh 
 -------------------------------------------------------
 ---------------------------------------
  Cycle       Energy         DIIS Error
 ---------------------------------------
    1    -119.1182808521      4.21E-03
    2    -119.1403107372      5.99E-04 Done RCA. Switching to DIIS
    3    -119.1411445001      4.21E-04
    4    -119.1421158651      4.55E-05
    5    -119.1421305815      1.01E-05
    6    -119.1421312753      3.90E-06 Convergence criterion met
 ---------------------------------------
 SCF time:  CPU 81.62 s  wall 27.61 s
 SCF   energy in the final basis set = -119.14213128
 Total energy in the final basis set = -119.14213128
 
 --------------------------------------------------------------
 
                    Orbital Energies (a.u.)
 --------------------------------------------------------------
 
 Alpha MOs
 -- Occupied --
-10.2730 -10.2652 -10.2639  -0.8810  -0.7769  -0.6775  -0.5449  -0.5249
 -0.4811  -0.4668  -0.4193  -0.4161  -0.4032
 -- Virtual --
  0.0696   0.0867   0.0911   0.1004   0.1230   0.1310   0.1326   0.1386
  0.1454   0.1672   0.1743   0.1904   0.2173   0.2393   0.2534   0.2578
  0.2900   0.3020   0.3109   0.3287   0.3330   0.3480   0.4571   0.4730
  0.4800   0.5007   0.5120   0.5192   0.5269   0.5564   0.5793   0.5879
  0.6159   0.6248   0.6312   0.6396   0.6523   0.6548   0.7052   0.7114
  0.7337   0.7685   0.8080   0.8506   0.8918   0.9166   0.9434   0.9696
  0.9962   1.0232   1.0905   1.1117   1.1532   1.1636   1.1876   1.2139
  1.2361   1.2380   1.2659   1.2688   1.2790   1.3152   1.3281   1.3695
  1.3780   1.3943   1.4295   1.4483   1.4572   1.4645   1.4681   1.5149
  1.5230   1.5496   1.5733   1.5979   1.6322   1.6478   1.6648   1.6859
  1.7427   2.3558   2.3954   2.4686   2.4714   2.5169   2.6331   2.6437
  2.6652   2.6850   2.8009   2.8135   2.8410   2.8895   2.9303   2.9333
  2.9398   2.9616   3.0104   3.0425   3.0464   3.0667   3.0781   3.1099
  3.1233   3.1472   3.1811   3.1909   3.1966   3.2399   3.2712   3.2928
  3.3032   3.3161   3.3426   3.3601   3.3675   3.4013   3.4255   3.4405
  3.4446   3.4750   3.5122   3.5406   3.5659   3.5877   3.6139   3.6178
  3.6389   3.6588   3.6967   3.7064   3.7522   3.7610   3.8199   3.8613
  3.8731   3.9257   3.9520   3.9741   4.0044   4.0222   4.0523   4.0684
  4.0897   4.0988   4.1177   4.1294   4.1466   4.1737   4.2009   4.2192
  4.2450   4.2689   4.2868   4.3101   4.3499   4.4142   4.4169   4.4638
  4.4915   4.5297   4.5940   4.6101   4.6656   4.8158   4.8376   4.9024
  4.9127   4.9409   4.9702   4.9895   5.0022   5.0580   5.0669   5.1305
  5.1488   5.2083   5.2358   5.2822   5.2831   5.3045   5.3488   5.3634
  5.3706   5.3936   5.4214   5.4881   5.5266   5.5337   5.6437   5.7200
  5.9716   6.3478   6.3792   6.4049   6.4273   6.4929  25.1470  25.4165
 25.4731
 --------------------------------------------------------------
 
 -----------------------------------------------------------------
                    Cartesian Multipole Moments
 -----------------------------------------------------------------
    Charge (ESU x 10^10)
                 0.0000
    Dipole Moment (Debye)
         X       0.0010      Y       0.0523      Z      -0.0685
       Tot       0.0861
    Quadrupole Moments (Debye-Ang)
        XX     -22.2216     XY       0.1455     YY     -21.4875
        XZ       0.1215     YZ       0.2278     ZZ     -21.6829
    Octopole Moments (Debye-Ang^2)
       XXX       0.2456    XXY       0.1229    XYY      -0.2434
       YYY      -0.7784    XXZ      -1.5101    XYZ      -0.1155
       YYZ       0.3953    XZZ      -0.1294    YZZ      -0.3382
       ZZZ      -0.8137
    Hexadecapole Moments (Debye-Ang^3)
      XXXX    -197.6005   XXXY      15.0658   XXYY     -43.8115
      XYYY      13.6597   YYYY     -55.8139   XXXZ       5.4724
      XXYZ       2.2074   XYYZ       0.8375   YYYZ       5.0182
      XXZZ     -42.5113   XYZZ       4.9764   YYZZ     -20.3827
      XZZZ       6.3516   YZZZ       6.0965   ZZZZ     -61.7215
 -----------------------------------------------------------------
Archival summary:
1\1\cn0821\SP\ProcedureUnspecified\BasisUnspecified\38\r0852400\SunApr1205:11:262020SunApr1205:11:262020\0\\#,ProcedureUnspecified,BasisUnspecified,\\0,1\C\H,1,1.09259\H,1,1.09259,2,106.225\C,1,1.52405,2,109.48,3,-118.121,0\H,4,1.0905,1,111.632,2,-141.965,0\H,4,1.09189,1,110.905,2,-21.6664,0\H,4,1.0919,1,110.906,2,97.7365,0\C,1,1.52405,2,109.48,3,118.121,0\H,8,1.09047,1,111.632,2,-58.0358,0\H,8,1.09187,1,110.906,2,-178.334,0\H,8,1.09187,1,110.906,2,62.2627,0\\\@

 Total job time:  40.74s(wall), 113.11s(cpu) 
 Sun Apr 12 05:11:26 2020

        *************************************************************
        *                                                           *
        *  Thank you very much for using Q-Chem.  Have a nice day.  *
        *                                                           *
        *************************************************************


