                  Welcome to Q-Chem
     A Quantum Leap Into The Future Of Chemistry


 Q-Chem 5.2 (devel), Q-Chem, Inc., Pleasanton, CA (2019)

 Yihan Shao,  Zhengting Gan,  E. Epifanovsky,  A. T. B. Gilbert,  M. Wormit,  
 J. Kussmann,  A. W. Lange,  A. Behn,  Jia Deng,  Xintian Feng,  D. Ghosh,  
 M. Goldey,  P. R. Horn,  L. D. Jacobson,  I. Kaliman,  T. Kus,  A. Landau,  
 Jie Liu,  E. I. Proynov,  R. M. Richard,  R. P. Steele,  E. J. Sundstrom,  
 H. L. Woodcock III,  P. M. Zimmerman,  D. Zuev,  B. Alam,  B. Albrecht,  
 E. Alguire,  S. A. Baeppler,  D. Barton,  Z. Benda,  Y. A. Bernard,  
 E. J. Berquist,  K. B. Bravaya,  H. Burton,  K. Carter-Fenk,  D. Casanova,  
 Chun-Min Chang,  Yunqing Chen,  A. Chien,  K. D. Closser,  M. P. Coons,  
 S. Coriani,  S. Dasgupta,  A. L. Dempwolff,  M. Diedenhofen,  Hainam Do,  
 R. G. Edgar,  Po-Tung Fang,  S. Faraji,  S. Fatehi,  Qingguo Feng,  
 J. Fosso-Tande,  J. Gayvert,  Qinghui Ge,  A. Ghysels,  G. Gidofalvi,  
 J. Gomes,  J. Gonthier,  A. Gunina,  D. Hait,  M. W. D. Hanson-Heine,  
 P. H. P. Harbach,  A. W. Hauser,  M. F. Herbst,  J. E. Herr,  
 E. G. Hohenstein,  Z. C. Holden,  Kerwin Hui,  B. C. Huynh,  T.-C. Jagau,  
 Hyunjun Ji,  B. Kaduk,  K. Khistyaev,  Jaehoon Kim,  P. Klunzinger,  K. Koh,  
 D. Kosenkov,  L. Koulias,  T. Kowalczyk,  C. M. Krauter,  A. Kunitsa,  
 Ka Un Lao,  A. Laurent,  K. V. Lawler,  Joonho Lee,  D. Lefrancois,  
 S. Lehtola,  D. S. Levine,  Yi-Pei Li,  You-Sheng Lin,  Fenglai Liu,  
 Kuan-Yu Liu,  E. Livshits,  M. Loipersberger,  A. Luenser,  P. Manohar,  
 E. Mansoor,  S. F. Manzer,  Shan-Ping Mao,  Yuezhi Mao,  N. Mardirossian,  
 A. V. Marenich,  T. Markovich,  L. A. Martinez-Martinez,  S. A. Maurer,  
 N. J. Mayhall,  S. C. McKenzie,  J.-M. Mewes,  P. Morgante,  A. F. Morrison,  
 J. W. Mullinax,  K. Nanda,  T. S. Nguyen-Beck,  R. Olivares-Amaya,  
 J. A. Parkhill,  S. K. Paul,  Zheng Pei,  T. M. Perrine,  F. Plasser,  
 P. Pokhilko,  S. Prager,  A. Prociuk,  E. Ramos,  B. Rana,  D. R. Rehn,  
 F. Rob,  M. Scheurer,  M. Schneider,  N. Sergueev,  S. M. Sharada,  
 S. Sharma,  D. W. Small,  T. Stauch,  C. J. Stein,  T. Stein,  Yu-Chuan Su,  
 S. P. Veccham,  A. J. W. Thom,  A. Tkatchenko,  T. Tsuchimochi,  
 N. M. Tubman,  L. Vogt,  M. L. Vidal,  O. Vydrov,  M. A. Watson,  J. Wenzel,  
 M. de Wergifosse,  T. A. Wesolowski,  A. White,  J. Witte,  A. Yamada,  
 Jun Yang,  K. Yao,  S. Yeganeh,  S. R. Yost,  Zhi-Qiang You,  A. Zech,  
 Igor Ying Zhang,  Xing Zhang,  Yan Zhao,  Ying Zhu,  B. R. Brooks,  
 G. K. L. Chan,  C. J. Cramer,  M. S. Gordon,  W. J. Hehre,  A. Klamt,  
 M. W. Schmidt,  C. D. Sherrill,  D. G. Truhlar,  A. Aspuru-Guzik,  R. Baer,  
 A. T. Bell,  N. A. Besley,  Jeng-Da Chai,  A. E. DePrince, III,  
 R. A. DiStasio Jr.,  A. Dreuw,  B. D. Dunietz,  T. R. Furlani,  
 Chao-Ping Hsu,  Yousung Jung,  Jing Kong,  D. S. Lambrecht,  WanZhen Liang,  
 C. Ochsenfeld,  V. A. Rassolov,  L. V. Slipchenko,  J. E. Subotnik,  
 T. Van Voorhis,  J. M. Herbert,  A. I. Krylov,  P. M. W. Gill,  M. Head-Gordon

 Contributors to earlier versions of Q-Chem not listed above: 
 R. D. Adamson,  B. Austin,  J. Baker,  G. J. O. Beran,  K. Brandhorst,  
 S. T. Brown,  E. F. C. Byrd,  A. K. Chakraborty,  C.-L. Cheng,  
 Siu Hung Chien,  D. M. Chipman,  D. L. Crittenden,  H. Dachsel,  
 R. J. Doerksen,  A. D. Dutoi,  L. Fusti-Molnar,  W. A. Goddard III,  
 A. Golubeva-Zadorozhnaya,  S. R. Gwaltney,  G. Hawkins,  A. Heyden,  
 S. Hirata,  G. Kedziora,  F. J. Keil,  C. Kelley,  Jihan Kim,  R. A. King,  
 R. Z. Khaliullin,  P. P. Korambath,  W. Kurlancheek,  A. M. Lee,  M. S. Lee,  
 S. V. Levchenko,  Ching Yeh Lin,  D. Liotard,  R. C. Lochan,  I. Lotan,  
 P. E. Maslen,  N. Nair,  D. P. O'Neill,  D. Neuhauser,  E. Neuscamman,  
 C. M. Oana,  R. Olson,  B. Peters,  R. Peverati,  P. A. Pieniazek,  
 Y. M. Rhee,  J. Ritchie,  M. A. Rohrdanz,  E. Rosta,  N. J. Russ,  
 H. F. Schaefer III,  N. E. Schultz,  N. Shenvi,  A. C. Simmonett,  A. Sodt,  
 D. Stuck,  K. S. Thanthiriwatte,  V. Vanovschi,  Tao Wang,  A. Warshel,  
 C. F. Williams,  Q. Wu,  X. Xu,  W. Zhang

 Please cite Q-Chem as follows:
 Y. Shao et al., Mol. Phys. 113, 184-215 (2015)
 DOI: 10.1080/00268976.2014.952696

 Q-Chem 5.2.2 for Intel X86 EM64T Linux

 Parts of Q-Chem use Armadillo 9.800.1 (Horizon Scraper).
 http://arma.sourceforge.net/

 Q-Chem begins on Sun Apr 12 07:19:01 2020  

Host: cn0821
0

     Scratch files written to /tmp/ypli/6721342.srvc1/qchem186133//
Warning:  Did not find "$end" marker in "$molecule" section

Checking the input file for inconsistencies... 	...done.

--------------------------------------------------------------
User input:
--------------------------------------------------------------
$rem
   JOBTYPE  sp
   EXCHANGE   omegaB97X-D
   BASIS   6-311+G(2df,2pd)
   max_scf_cycles   250
   geom_opt_max_cycles   1500
   basis2 6-31G*
   scf_algorithm rca_diis
   SYM_IGNORE  TRUE
   print_input   true
   geom_opt_dmax   80
   pop_mulliken false
   XC_GRID 000075000302
$end

$molecule
0 1
C       1.2453628938     -0.0392541676     0.2732026060
C       -0.0226754374     0.0051837966     -0.5908897532
H       1.1070690282     -0.9371967496     0.8620019494
H       1.5014853524     0.9124202314     0.7548572942
H       2.1694944868     0.2117057974     -0.2561218970
C       -1.2873328147     0.0529919198     0.2382620235
H       -0.0296074600     -0.8703467042     -1.2444603284
H       0.0655852282     0.8740568592     -1.2474152699
H       -1.5050338499     -0.7751825181     0.9304631482
H       -2.1212076788     -0.2197622341     -0.4030989811
H       -1.1231398090     0.7853844352     1.0242442272
--------------------------------------------------------------
 ----------------------------------------------------------------
             Standard Nuclear Orientation (Angstroms)
    I     Atom           X                Y                Z
 ----------------------------------------------------------------
    1      C       1.2453628938    -0.0392541676     0.2732026060
    2      C      -0.0226754374     0.0051837966    -0.5908897532
    3      H       1.1070690282    -0.9371967496     0.8620019494
    4      H       1.5014853524     0.9124202314     0.7548572942
    5      H       2.1694944868     0.2117057974    -0.2561218970
    6      C      -1.2873328147     0.0529919198     0.2382620235
    7      H      -0.0296074600    -0.8703467042    -1.2444603284
    8      H       0.0655852282     0.8740568592    -1.2474152699
    9      H      -1.5050338499    -0.7751825181     0.9304631482
   10      H      -2.1212076788    -0.2197622341    -0.4030989811
   11      H      -1.1231398090     0.7853844352     1.0242442272
 ----------------------------------------------------------------
 Nuclear Repulsion Energy =          82.85677164 hartrees
 There are       13 alpha and       13 beta electrons
 Requested basis set is 6-311+G(2df,2pd)
 There are 72 shells and 214 basis functions

 Total QAlloc Memory Limit   2000 MB
 Mega-Array Size       188 MB
 MEM_STATIC part       192 MB

                       Distance Matrix (Angstroms)
             C (  1)   C (  2)   H (  3)   H (  4)   H (  5)   C (  6)
   C (  2)  1.535106
   H (  3)  1.082641  2.067679
   H (  4)  1.096939  2.226472  1.894235
   H (  5)  1.094159  2.227180  1.923259  1.399756
   C (  6)  2.534616  1.512989  2.665086  2.963612  3.495606
   H (  7)  2.149317  1.092592  2.394512  3.085413  2.642669  2.152416
   H (  8)  2.130327  1.092591  2.969001  2.464219  2.418224  2.170662
   H (  9)  2.922031  2.262935  2.618018  3.452245  3.985485  1.101094
   H ( 10)  3.438570  2.118892  3.540757  3.968199  4.314846  1.086778
   H ( 11)  2.617995  2.104375  2.822665  2.641470  3.579090  1.086796
             H (  7)   H (  8)   H (  9)   H ( 10)
   H (  8)  1.747001
   H (  9)  2.629873  3.151189
   H ( 10)  2.346474  2.586769  1.570525
   H ( 11)  3.014014  2.565417  1.609350  2.010912
 
 A cutoff of  1.0D-09 yielded   2534 shell pairs
 There are     22542 function pairs (     27717 Cartesian)
 Smallest overlap matrix eigenvalue = 8.87E-05

 Scale SEOQF with 1.000000e-01/1.000000e-01/1.000000e-01

 Standard Electronic Orientation quadrupole field applied
 Nucleus-field energy     =     0.0000000006 hartrees
 Requested basis set is 6-31G(d)
 There are 28 shells and 58 basis functions
 A cutoff of  1.0D-09 yielded    402 shell pairs
 There are      1773 function pairs (      1968 Cartesian)
 Smallest overlap matrix eigenvalue = 6.88E-03
 Guess from superposition of atomic densities
 Warning:  Energy on first SCF cycle will be non-variational
 SAD guess density has 26.000000 electrons
 Long-range K will be added via erf
 Coulomb attenuation parameter = 0.2 bohr**(-1)
 A restricted hybrid HF-DFT SCF calculation will be
 performed using Relaxed Constraint Minimization + Pulay DIIS
 Exchange:     0.2220 Hartree-Fock + 1.0000 wB97X-D + LR-HF
 Correlation:  1.0000 wB97X-D
 Using Euler-Maclaurin-Lebedev (75,302) quadrature formula
 Dispersion:   Grimme D
 SCF converges when DIIS error is below 1.0E-04
 using 3 threads for integral computing
 -------------------------------------------------------
 OpenMP Integral computing Module                
 Release: version 1.0, May 2013, Q-Chem Inc. Pittsburgh 
 -------------------------------------------------------
 using 3 threads for integral computing
 -------------------------------------------------------
 OpenMP Integral computing Module                
 Release: version 1.0, May 2013, Q-Chem Inc. Pittsburgh 
 -------------------------------------------------------
 ---------------------------------------
  Cycle       Energy         DIIS Error
 ---------------------------------------
    1    -119.6500523109      1.01E-01
    2    -119.0036448260      9.49E-03
    3    -119.0272891431      2.57E-03
    4    -119.0433954027      1.76E-03
    5    -119.0441593657      2.79E-04 Done RCA. Switching to DIIS
    6    -119.0447340410      2.02E-04
    7    -119.0447523464      7.47E-06 Convergence criterion met
 ---------------------------------------
 SCF time:  CPU 32.99 s  wall 11.38 s
 SCF   energy in the small basis set = -119.04475235
 Total energy in the small basis set = -119.04475235
 ----------------------------------------------------
  Cycle       Energy    
 ----------------------------------------------------
    1     -16.5321160843     -1.65E+01
 Long-range K will be added via erf
 Coulomb attenuation parameter = 0.2 bohr**(-1)
 A restricted hybrid HF-DFT SCF calculation will be
 performed using Relaxed Constraint Minimization + Pulay DIIS
 Exchange:     0.2220 Hartree-Fock + 1.0000 wB97X-D + LR-HF
 Correlation:  1.0000 wB97X-D
 Using Euler-Maclaurin-Lebedev (75,302) quadrature formula
 Dispersion:   Grimme D
 SCF converges when DIIS error is below 1.0E-05
 Basis2 calculation detected. Using small basis as guess for larger.
 SCFMinFind is unable to tell whether the solution found is close.
 Resetting ReadMinima to 0 and attempting to follow guess.
 SCFMinFind following SCF Guess.
 using 3 threads for integral computing
 -------------------------------------------------------
 OpenMP Integral computing Module                
 Release: version 1.0, May 2013, Q-Chem Inc. Pittsburgh 
 -------------------------------------------------------
 using 3 threads for integral computing
 -------------------------------------------------------
 OpenMP Integral computing Module                
 Release: version 1.0, May 2013, Q-Chem Inc. Pittsburgh 
 -------------------------------------------------------
 ---------------------------------------
  Cycle       Energy         DIIS Error
 ---------------------------------------
    1    -119.0669570682      4.21E-03
    2    -119.0888430935      6.45E-04 Done RCA. Switching to DIIS
    3    -119.0897504405      4.67E-04
    4    -119.0909539842      4.70E-05
    5    -119.0909705825      1.08E-05
    6    -119.0909714633      4.21E-06 Convergence criterion met
 ---------------------------------------
 SCF time:  CPU 97.78 s  wall 33.07 s
 SCF   energy in the final basis set = -119.09097146
 Total energy in the final basis set = -119.09097146
 
 --------------------------------------------------------------
 
                    Orbital Energies (a.u.)
 --------------------------------------------------------------
 
 Alpha MOs
 -- Occupied --
-10.2749 -10.2665 -10.2660  -0.8844  -0.7843  -0.6839  -0.5615  -0.5483
 -0.4830  -0.4452  -0.4337  -0.4015  -0.3713
 -- Virtual --
  0.0682   0.0828   0.0901   0.0995   0.1204   0.1307   0.1320   0.1405
  0.1428   0.1678   0.1743   0.1947   0.2039   0.2254   0.2504   0.2677
  0.2751   0.2942   0.3055   0.3173   0.3330   0.3443   0.4571   0.4673
  0.4758   0.5047   0.5208   0.5298   0.5490   0.5620   0.5771   0.5970
  0.6056   0.6243   0.6360   0.6432   0.6688   0.6840   0.7063   0.7173
  0.7354   0.7723   0.7938   0.8446   0.8716   0.8791   0.9083   0.9206
  0.9612   1.0254   1.0550   1.1055   1.1502   1.1838   1.2045   1.2112
  1.2447   1.2598   1.2693   1.2793   1.2926   1.3218   1.3266   1.3677
  1.3799   1.3910   1.4259   1.4427   1.4573   1.4715   1.4854   1.4988
  1.5124   1.5746   1.6074   1.6245   1.6351   1.6505   1.6817   1.7009
  1.7835   2.4205   2.4580   2.4905   2.5172   2.5591   2.5643   2.6217
  2.6599   2.7020   2.7528   2.8114   2.8240   2.8575   2.8635   2.8834
  2.9215   2.9442   2.9677   3.0089   3.0212   3.0599   3.0848   3.1121
  3.1230   3.1542   3.1732   3.2022   3.2176   3.2340   3.2535   3.2989
  3.3042   3.3308   3.3377   3.3848   3.4096   3.4187   3.4452   3.4703
  3.4831   3.5119   3.5334   3.5427   3.5786   3.5838   3.5893   3.6193
  3.6494   3.6542   3.6807   3.6853   3.7322   3.7528   3.7925   3.8049
  3.8431   3.8656   3.8770   3.9099   3.9283   3.9780   3.9811   4.0258
  4.0616   4.0994   4.1026   4.1364   4.1555   4.1667   4.2062   4.2517
  4.2653   4.2908   4.3259   4.3626   4.4002   4.4161   4.4340   4.4622
  4.5095   4.5562   4.6215   4.6301   4.6830   4.6959   4.7482   4.8236
  4.8788   4.9290   4.9440   4.9773   4.9884   5.0338   5.0708   5.1147
  5.1253   5.1913   5.2490   5.2806   5.3093   5.3497   5.3958   5.4427
  5.4809   5.5181   5.5708   5.6384   5.7484   5.7838   5.8102   5.8804
  5.9919   6.3253   6.3542   6.4381   6.4979   6.5377  25.2001  25.4213
 25.4499
 --------------------------------------------------------------
 
 -----------------------------------------------------------------
                    Cartesian Multipole Moments
 -----------------------------------------------------------------
    Charge (ESU x 10^10)
                -0.0000
    Dipole Moment (Debye)
         X       0.1044      Y      -0.0298      Z      -0.0391
       Tot       0.1154
    Quadrupole Moments (Debye-Ang)
        XX     -22.0631     XY       1.9962     YY     -21.5570
        XZ      -0.0892     YZ      -0.0459     ZZ     -22.0698
    Octopole Moments (Debye-Ang^2)
       XXX       1.9065    XXY       0.2222    XYY       1.4402
       YYY      -0.4899    XXZ      -0.7605    XYZ      -0.5198
       YYZ       0.0804    XZZ      -0.9089    YZZ      -0.1841
       ZZZ      -0.2778
    Hexadecapole Moments (Debye-Ang^3)
      XXXX    -203.1401   XXXY      10.3043   XXYY     -41.9980
      XYYY      -0.0753   YYYY     -44.8761   XXXZ       0.9405
      XXYZ       0.1630   XYYZ       0.3398   YYYZ      -0.2736
      XXZZ     -46.1633   XYZZ      -0.2619   YYZZ     -17.6584
      XZZZ      -1.8000   YZZZ      -0.0026   ZZZZ     -72.6593
 -----------------------------------------------------------------
Archival summary:
1\1\cn0821\SP\ProcedureUnspecified\BasisUnspecified\38\r0852400\SunApr1207:19:492020SunApr1207:19:492020\0\\#,ProcedureUnspecified,BasisUnspecified,\\0,1\C\H,1,1.09259\H,1,1.09259,2,106.16\C,1,1.51299,2,111.82,3,-120.405,0\H,4,1.08678,1,108.06,2,76.3511,0\H,4,1.0868,1,106.939,2,-75.5345,0\H,4,1.10109,1,119.079,2,178.947,0\C,1,1.53511,2,107.129,3,115.886,0\H,8,1.08264,1,102.981,2,-177.79,0\H,8,1.09416,1,114.754,2,-40.0162,0\H,8,1.09694,1,114.514,2,49.2872,0\\\@

 Total job time:  48.68s(wall), 135.92s(cpu) 
 Sun Apr 12 07:19:49 2020

        *************************************************************
        *                                                           *
        *  Thank you very much for using Q-Chem.  Have a nice day.  *
        *                                                           *
        *************************************************************


