                  Welcome to Q-Chem
     A Quantum Leap Into The Future Of Chemistry


 Q-Chem 5.2 (devel), Q-Chem, Inc., Pleasanton, CA (2019)

 Yihan Shao,  Zhengting Gan,  E. Epifanovsky,  A. T. B. Gilbert,  M. Wormit,  
 J. Kussmann,  A. W. Lange,  A. Behn,  Jia Deng,  Xintian Feng,  D. Ghosh,  
 M. Goldey,  P. R. Horn,  L. D. Jacobson,  I. Kaliman,  T. Kus,  A. Landau,  
 Jie Liu,  E. I. Proynov,  R. M. Richard,  R. P. Steele,  E. J. Sundstrom,  
 H. L. Woodcock III,  P. M. Zimmerman,  D. Zuev,  B. Alam,  B. Albrecht,  
 E. Alguire,  S. A. Baeppler,  D. Barton,  Z. Benda,  Y. A. Bernard,  
 E. J. Berquist,  K. B. Bravaya,  H. Burton,  K. Carter-Fenk,  D. Casanova,  
 Chun-Min Chang,  Yunqing Chen,  A. Chien,  K. D. Closser,  M. P. Coons,  
 S. Coriani,  S. Dasgupta,  A. L. Dempwolff,  M. Diedenhofen,  Hainam Do,  
 R. G. Edgar,  Po-Tung Fang,  S. Faraji,  S. Fatehi,  Qingguo Feng,  
 J. Fosso-Tande,  J. Gayvert,  Qinghui Ge,  A. Ghysels,  G. Gidofalvi,  
 J. Gomes,  J. Gonthier,  A. Gunina,  D. Hait,  M. W. D. Hanson-Heine,  
 P. H. P. Harbach,  A. W. Hauser,  M. F. Herbst,  J. E. Herr,  
 E. G. Hohenstein,  Z. C. Holden,  Kerwin Hui,  B. C. Huynh,  T.-C. Jagau,  
 Hyunjun Ji,  B. Kaduk,  K. Khistyaev,  Jaehoon Kim,  P. Klunzinger,  K. Koh,  
 D. Kosenkov,  L. Koulias,  T. Kowalczyk,  C. M. Krauter,  A. Kunitsa,  
 Ka Un Lao,  A. Laurent,  K. V. Lawler,  Joonho Lee,  D. Lefrancois,  
 S. Lehtola,  D. S. Levine,  Yi-Pei Li,  You-Sheng Lin,  Fenglai Liu,  
 Kuan-Yu Liu,  E. Livshits,  M. Loipersberger,  A. Luenser,  P. Manohar,  
 E. Mansoor,  S. F. Manzer,  Shan-Ping Mao,  Yuezhi Mao,  N. Mardirossian,  
 A. V. Marenich,  T. Markovich,  L. A. Martinez-Martinez,  S. A. Maurer,  
 N. J. Mayhall,  S. C. McKenzie,  J.-M. Mewes,  P. Morgante,  A. F. Morrison,  
 J. W. Mullinax,  K. Nanda,  T. S. Nguyen-Beck,  R. Olivares-Amaya,  
 J. A. Parkhill,  S. K. Paul,  Zheng Pei,  T. M. Perrine,  F. Plasser,  
 P. Pokhilko,  S. Prager,  A. Prociuk,  E. Ramos,  B. Rana,  D. R. Rehn,  
 F. Rob,  M. Scheurer,  M. Schneider,  N. Sergueev,  S. M. Sharada,  
 S. Sharma,  D. W. Small,  T. Stauch,  C. J. Stein,  T. Stein,  Yu-Chuan Su,  
 S. P. Veccham,  A. J. W. Thom,  A. Tkatchenko,  T. Tsuchimochi,  
 N. M. Tubman,  L. Vogt,  M. L. Vidal,  O. Vydrov,  M. A. Watson,  J. Wenzel,  
 M. de Wergifosse,  T. A. Wesolowski,  A. White,  J. Witte,  A. Yamada,  
 Jun Yang,  K. Yao,  S. Yeganeh,  S. R. Yost,  Zhi-Qiang You,  A. Zech,  
 Igor Ying Zhang,  Xing Zhang,  Yan Zhao,  Ying Zhu,  B. R. Brooks,  
 G. K. L. Chan,  C. J. Cramer,  M. S. Gordon,  W. J. Hehre,  A. Klamt,  
 M. W. Schmidt,  C. D. Sherrill,  D. G. Truhlar,  A. Aspuru-Guzik,  R. Baer,  
 A. T. Bell,  N. A. Besley,  Jeng-Da Chai,  A. E. DePrince, III,  
 R. A. DiStasio Jr.,  A. Dreuw,  B. D. Dunietz,  T. R. Furlani,  
 Chao-Ping Hsu,  Yousung Jung,  Jing Kong,  D. S. Lambrecht,  WanZhen Liang,  
 C. Ochsenfeld,  V. A. Rassolov,  L. V. Slipchenko,  J. E. Subotnik,  
 T. Van Voorhis,  J. M. Herbert,  A. I. Krylov,  P. M. W. Gill,  M. Head-Gordon

 Contributors to earlier versions of Q-Chem not listed above: 
 R. D. Adamson,  B. Austin,  J. Baker,  G. J. O. Beran,  K. Brandhorst,  
 S. T. Brown,  E. F. C. Byrd,  A. K. Chakraborty,  C.-L. Cheng,  
 Siu Hung Chien,  D. M. Chipman,  D. L. Crittenden,  H. Dachsel,  
 R. J. Doerksen,  A. D. Dutoi,  L. Fusti-Molnar,  W. A. Goddard III,  
 A. Golubeva-Zadorozhnaya,  S. R. Gwaltney,  G. Hawkins,  A. Heyden,  
 S. Hirata,  G. Kedziora,  F. J. Keil,  C. Kelley,  Jihan Kim,  R. A. King,  
 R. Z. Khaliullin,  P. P. Korambath,  W. Kurlancheek,  A. M. Lee,  M. S. Lee,  
 S. V. Levchenko,  Ching Yeh Lin,  D. Liotard,  R. C. Lochan,  I. Lotan,  
 P. E. Maslen,  N. Nair,  D. P. O'Neill,  D. Neuhauser,  E. Neuscamman,  
 C. M. Oana,  R. Olson,  B. Peters,  R. Peverati,  P. A. Pieniazek,  
 Y. M. Rhee,  J. Ritchie,  M. A. Rohrdanz,  E. Rosta,  N. J. Russ,  
 H. F. Schaefer III,  N. E. Schultz,  N. Shenvi,  A. C. Simmonett,  A. Sodt,  
 D. Stuck,  K. S. Thanthiriwatte,  V. Vanovschi,  Tao Wang,  A. Warshel,  
 C. F. Williams,  Q. Wu,  X. Xu,  W. Zhang

 Please cite Q-Chem as follows:
 Y. Shao et al., Mol. Phys. 113, 184-215 (2015)
 DOI: 10.1080/00268976.2014.952696

 Q-Chem 5.2.2 for Intel X86 EM64T Linux

 Parts of Q-Chem use Armadillo 9.800.1 (Horizon Scraper).
 http://arma.sourceforge.net/

 Q-Chem begins on Sun Apr 12 07:12:24 2020  

Host: cn0821
0

     Scratch files written to /tmp/ypli/6721342.srvc1/qchem185175//
Warning:  Did not find "$end" marker in "$molecule" section

Checking the input file for inconsistencies... 	...done.

--------------------------------------------------------------
User input:
--------------------------------------------------------------
$rem
   JOBTYPE  sp
   EXCHANGE   omegaB97X-D
   BASIS   6-311+G(2df,2pd)
   max_scf_cycles   250
   geom_opt_max_cycles   1500
   basis2 6-31G*
   scf_algorithm rca_diis
   SYM_IGNORE  TRUE
   print_input   true
   geom_opt_dmax   80
   pop_mulliken false
   XC_GRID 000075000302
$end

$molecule
0 1
C       1.2786037067     -0.0000665569     0.2836690543
C       0.0000002014     -0.0002941440     -0.5724828345
H       1.2552312840     -0.9006345990     0.8982185171
H       1.2562363833     0.9006295644     0.8981079165
H       2.1322713574     0.0003494161     -0.3926262960
C       -1.2786032914     -0.0000665141     0.2836689445
H       -0.0000000094     -0.8731230053     -1.2308327082
H       0.0000001093     0.8728616931     -1.2303778871
H       -1.2552317907     -0.9006346452     0.8982183094
H       -2.1322715908     0.0003497062     -0.3926256812
H       -1.2562364204     0.9006297508     0.8981076840
--------------------------------------------------------------
 ----------------------------------------------------------------
             Standard Nuclear Orientation (Angstroms)
    I     Atom           X                Y                Z
 ----------------------------------------------------------------
    1      C       1.2786037067    -0.0000665569     0.2836690543
    2      C       0.0000002014    -0.0002941440    -0.5724828345
    3      H       1.2552312840    -0.9006345990     0.8982185171
    4      H       1.2562363833     0.9006295644     0.8981079165
    5      H       2.1322713574     0.0003494161    -0.3926262960
    6      C      -1.2786032914    -0.0000665141     0.2836689445
    7      H      -0.0000000094    -0.8731230053    -1.2308327082
    8      H       0.0000001093     0.8728616931    -1.2303778871
    9      H      -1.2552317907    -0.9006346452     0.8982183094
   10      H      -2.1322715908     0.0003497062    -0.3926256812
   11      H      -1.2562364204     0.9006297508     0.8981076840
 ----------------------------------------------------------------
 Nuclear Repulsion Energy =          82.64161169 hartrees
 There are       13 alpha and       13 beta electrons
 Requested basis set is 6-311+G(2df,2pd)
 There are 72 shells and 214 basis functions

 Total QAlloc Memory Limit   2000 MB
 Mega-Array Size       188 MB
 MEM_STATIC part       192 MB

                       Distance Matrix (Angstroms)
             C (  1)   C (  2)   H (  3)   H (  4)   H (  5)   C (  6)
   C (  2)  1.538773
   H (  3)  1.090523  2.132881
   H (  4)  1.090545  2.133642  1.801264
   H (  5)  1.089093  2.139843  1.802013  1.801093
   C (  6)  2.557207  1.538773  2.758444  2.759384  3.477275
   H (  7)  2.165819  1.093277  2.471684  3.042485  2.451964  2.165818
   H (  8)  2.165449  1.093264  3.041680  2.471710  2.451466  2.165449
   H (  9)  2.758444  2.132881  2.510463  3.090635  3.735402  1.090523
   H ( 10)  3.477276  2.139844  3.735402  3.736105  4.264543  1.089093
   H ( 11)  2.759385  2.133643  3.090635  2.512473  3.736105  1.090545
             H (  7)   H (  8)   H (  9)   H ( 10)
   H (  8)  1.745985
   H (  9)  2.471684  3.041680
   H ( 10)  2.451964  2.451467  1.802013
   H ( 11)  3.042485  2.471710  1.801265  1.801093
 
 A cutoff of  1.0D-09 yielded   2534 shell pairs
 There are     22580 function pairs (     27761 Cartesian)
 Smallest overlap matrix eigenvalue = 8.93E-05

 Scale SEOQF with 1.000000e-01/1.000000e-01/1.000000e-01

 Standard Electronic Orientation quadrupole field applied
 Nucleus-field energy     =     0.0000000006 hartrees
 Requested basis set is 6-31G(d)
 There are 28 shells and 58 basis functions
 A cutoff of  1.0D-09 yielded    402 shell pairs
 There are      1773 function pairs (      1968 Cartesian)
 Smallest overlap matrix eigenvalue = 6.70E-03
 Guess from superposition of atomic densities
 Warning:  Energy on first SCF cycle will be non-variational
 SAD guess density has 26.000000 electrons
 Long-range K will be added via erf
 Coulomb attenuation parameter = 0.2 bohr**(-1)
 A restricted hybrid HF-DFT SCF calculation will be
 performed using Relaxed Constraint Minimization + Pulay DIIS
 Exchange:     0.2220 Hartree-Fock + 1.0000 wB97X-D + LR-HF
 Correlation:  1.0000 wB97X-D
 Using Euler-Maclaurin-Lebedev (75,302) quadrature formula
 Dispersion:   Grimme D
 SCF converges when DIIS error is below 1.0E-04
 using 3 threads for integral computing
 -------------------------------------------------------
 OpenMP Integral computing Module                
 Release: version 1.0, May 2013, Q-Chem Inc. Pittsburgh 
 -------------------------------------------------------
 using 3 threads for integral computing
 -------------------------------------------------------
 OpenMP Integral computing Module                
 Release: version 1.0, May 2013, Q-Chem Inc. Pittsburgh 
 -------------------------------------------------------
 ---------------------------------------
  Cycle       Energy         DIIS Error
 ---------------------------------------
    1    -119.5946415585      9.96E-02
    2    -119.0635649862      8.99E-03
    3    -119.0848595077      2.54E-03
    4    -119.0983950182      1.74E-03
    5    -119.0991461314      2.93E-04 Done RCA. Switching to DIIS
    6    -119.0996810110      2.15E-04
    7    -119.0997010560      4.77E-06 Convergence criterion met
 ---------------------------------------
 SCF time:  CPU 32.83 s  wall 11.34 s
 SCF   energy in the small basis set = -119.09970106
 Total energy in the small basis set = -119.09970106
 ----------------------------------------------------
  Cycle       Energy    
 ----------------------------------------------------
    1     -16.5334689561     -1.65E+01
 Long-range K will be added via erf
 Coulomb attenuation parameter = 0.2 bohr**(-1)
 A restricted hybrid HF-DFT SCF calculation will be
 performed using Relaxed Constraint Minimization + Pulay DIIS
 Exchange:     0.2220 Hartree-Fock + 1.0000 wB97X-D + LR-HF
 Correlation:  1.0000 wB97X-D
 Using Euler-Maclaurin-Lebedev (75,302) quadrature formula
 Dispersion:   Grimme D
 SCF converges when DIIS error is below 1.0E-05
 Basis2 calculation detected. Using small basis as guess for larger.
 SCFMinFind is unable to tell whether the solution found is close.
 Resetting ReadMinima to 0 and attempting to follow guess.
 SCFMinFind following SCF Guess.
 using 3 threads for integral computing
 -------------------------------------------------------
 OpenMP Integral computing Module                
 Release: version 1.0, May 2013, Q-Chem Inc. Pittsburgh 
 -------------------------------------------------------
 using 3 threads for integral computing
 -------------------------------------------------------
 OpenMP Integral computing Module                
 Release: version 1.0, May 2013, Q-Chem Inc. Pittsburgh 
 -------------------------------------------------------
 ---------------------------------------
  Cycle       Energy         DIIS Error
 ---------------------------------------
    1    -119.1187101078      4.22E-03
    2    -119.1407483880      6.14E-04 Done RCA. Switching to DIIS
    3    -119.1416281017      4.31E-04
    4    -119.1426473983      4.48E-05
    5    -119.1426615642      1.14E-05
    6    -119.1426623719      4.13E-06 Convergence criterion met
 ---------------------------------------
 SCF time:  CPU 98.38 s  wall 33.28 s
 SCF   energy in the final basis set = -119.14266237
 Total energy in the final basis set = -119.14266237
 
 --------------------------------------------------------------
 
                    Orbital Energies (a.u.)
 --------------------------------------------------------------
 
 Alpha MOs
 -- Occupied --
-10.2723 -10.2660 -10.2660  -0.8799  -0.7760  -0.6721  -0.5490  -0.5247
 -0.4827  -0.4699  -0.4145  -0.4108  -0.4097
 -- Virtual --
  0.0695   0.0872   0.0910   0.0977   0.1241   0.1307   0.1326   0.1396
  0.1434   0.1700   0.1718   0.1906   0.2270   0.2419   0.2498   0.2651
  0.2762   0.2826   0.3087   0.3168   0.3361   0.3379   0.4541   0.4657
  0.4700   0.5045   0.5073   0.5191   0.5363   0.5614   0.5883   0.5904
  0.6210   0.6215   0.6338   0.6440   0.6575   0.6597   0.7086   0.7234
  0.7264   0.7647   0.8177   0.8585   0.8677   0.8741   0.8894   0.9512
  0.9997   1.0501   1.0515   1.1239   1.1345   1.1818   1.1828   1.2027
  1.2308   1.2492   1.2763   1.2791   1.2816   1.2879   1.3332   1.3832
  1.3949   1.3982   1.4025   1.4327   1.4601   1.4644   1.4782   1.4843
  1.5035   1.5634   1.5975   1.6009   1.6131   1.6464   1.6480   1.6904
  1.7243   2.3988   2.4915   2.5022   2.5123   2.5573   2.5788   2.6222
  2.6514   2.7130   2.8201   2.8421   2.8582   2.9164   2.9229   2.9383
  2.9441   2.9478   3.0077   3.0091   3.0117   3.0237   3.0242   3.1076
  3.1218   3.1373   3.1721   3.1916   3.1919   3.2019   3.2689   3.2888
  3.2890   3.3165   3.3408   3.3614   3.3762   3.3792   3.3839   3.4403
  3.4648   3.4926   3.5161   3.5336   3.5635   3.5764   3.5857   3.6065
  3.6277   3.6765   3.6929   3.7191   3.7679   3.7819   3.8751   3.8970
  3.9037   3.9473   3.9567   3.9626   3.9822   4.0168   4.0549   4.0731
  4.0754   4.0917   4.1084   4.1213   4.1317   4.1413   4.1544   4.1855
  4.2012   4.2154   4.2438   4.3595   4.4029   4.4084   4.4149   4.4260
  4.4559   4.5859   4.5941   4.5974   4.6891   4.8283   4.8465   4.9178
  4.9221   4.9540   4.9540   4.9772   5.0000   5.0239   5.0563   5.1242
  5.1342   5.2560   5.2616   5.2658   5.2857   5.3308   5.3660   5.4043
  5.4257   5.4316   5.4428   5.4841   5.5793   5.6073   5.6388   5.7322
  5.9533   6.3443   6.3556   6.3696   6.3950   6.4626  25.1853  25.4450
 25.4510
 --------------------------------------------------------------
 
 -----------------------------------------------------------------
                    Cartesian Multipole Moments
 -----------------------------------------------------------------
    Charge (ESU x 10^10)
                -0.0000
    Dipole Moment (Debye)
         X      -0.0000      Y       0.0007      Z      -0.1419
       Tot       0.1419
    Quadrupole Moments (Debye-Ang)
        XX     -22.6553     XY       0.0000     YY     -21.1839
        XZ      -0.0000     YZ       0.0003     ZZ     -21.9412
    Octopole Moments (Debye-Ang^2)
       XXX      -0.0000    XXY       0.0139    XYY      -0.0000
       YYY       0.0066    XXZ      -2.8393    XYZ       0.0000
       YYZ       0.4287    XZZ      -0.0000    YZZ       0.0005
       ZZZ      -1.3902
    Hexadecapole Moments (Debye-Ang^3)
      XXXX    -204.4816   XXXY       0.0000   XXYY     -42.1181
      XYYY       0.0000   YYYY     -44.1986   XXXZ      -0.0000
      XXYZ       0.0024   XYYZ      -0.0000   YYYZ      -0.0015
      XXZZ     -45.4259   XYZZ       0.0000   YYZZ     -17.2036
      XZZZ       0.0000   YZZZ       0.0006   ZZZZ     -72.8008
 -----------------------------------------------------------------
Archival summary:
1\1\cn0821\SP\ProcedureUnspecified\BasisUnspecified\38\r0852400\SunApr1207:13:132020SunApr1207:13:132020\0\\#,ProcedureUnspecified,BasisUnspecified,\\0,1\C\H,1,1.09326\H,1,1.09328,2,105.977\C,1,1.53877,2,109.554,3,-118.142,0\H,4,1.08909,1,107.807,2,57.9317,0\H,4,1.09052,1,107.194,2,178.127,0\H,4,1.09055,1,107.251,2,-62.1913,0\C,1,1.53877,2,109.554,3,118.142,0\H,8,1.08909,1,107.807,2,-57.9317,0\H,8,1.09052,1,107.194,2,-178.127,0\H,8,1.09055,1,107.251,2,62.1913,0\\\@

 Total job time:  49.03s(wall), 136.45s(cpu) 
 Sun Apr 12 07:13:13 2020

        *************************************************************
        *                                                           *
        *  Thank you very much for using Q-Chem.  Have a nice day.  *
        *                                                           *
        *************************************************************


