                  Welcome to Q-Chem
     A Quantum Leap Into The Future Of Chemistry


 Q-Chem 5.2 (devel), Q-Chem, Inc., Pleasanton, CA (2019)

 Yihan Shao,  Zhengting Gan,  E. Epifanovsky,  A. T. B. Gilbert,  M. Wormit,  
 J. Kussmann,  A. W. Lange,  A. Behn,  Jia Deng,  Xintian Feng,  D. Ghosh,  
 M. Goldey,  P. R. Horn,  L. D. Jacobson,  I. Kaliman,  T. Kus,  A. Landau,  
 Jie Liu,  E. I. Proynov,  R. M. Richard,  R. P. Steele,  E. J. Sundstrom,  
 H. L. Woodcock III,  P. M. Zimmerman,  D. Zuev,  B. Alam,  B. Albrecht,  
 E. Alguire,  S. A. Baeppler,  D. Barton,  Z. Benda,  Y. A. Bernard,  
 E. J. Berquist,  K. B. Bravaya,  H. Burton,  K. Carter-Fenk,  D. Casanova,  
 Chun-Min Chang,  Yunqing Chen,  A. Chien,  K. D. Closser,  M. P. Coons,  
 S. Coriani,  S. Dasgupta,  A. L. Dempwolff,  M. Diedenhofen,  Hainam Do,  
 R. G. Edgar,  Po-Tung Fang,  S. Faraji,  S. Fatehi,  Qingguo Feng,  
 J. Fosso-Tande,  J. Gayvert,  Qinghui Ge,  A. Ghysels,  G. Gidofalvi,  
 J. Gomes,  J. Gonthier,  A. Gunina,  D. Hait,  M. W. D. Hanson-Heine,  
 P. H. P. Harbach,  A. W. Hauser,  M. F. Herbst,  J. E. Herr,  
 E. G. Hohenstein,  Z. C. Holden,  Kerwin Hui,  B. C. Huynh,  T.-C. Jagau,  
 Hyunjun Ji,  B. Kaduk,  K. Khistyaev,  Jaehoon Kim,  P. Klunzinger,  K. Koh,  
 D. Kosenkov,  L. Koulias,  T. Kowalczyk,  C. M. Krauter,  A. Kunitsa,  
 Ka Un Lao,  A. Laurent,  K. V. Lawler,  Joonho Lee,  D. Lefrancois,  
 S. Lehtola,  D. S. Levine,  Yi-Pei Li,  You-Sheng Lin,  Fenglai Liu,  
 Kuan-Yu Liu,  E. Livshits,  M. Loipersberger,  A. Luenser,  P. Manohar,  
 E. Mansoor,  S. F. Manzer,  Shan-Ping Mao,  Yuezhi Mao,  N. Mardirossian,  
 A. V. Marenich,  T. Markovich,  L. A. Martinez-Martinez,  S. A. Maurer,  
 N. J. Mayhall,  S. C. McKenzie,  J.-M. Mewes,  P. Morgante,  A. F. Morrison,  
 J. W. Mullinax,  K. Nanda,  T. S. Nguyen-Beck,  R. Olivares-Amaya,  
 J. A. Parkhill,  S. K. Paul,  Zheng Pei,  T. M. Perrine,  F. Plasser,  
 P. Pokhilko,  S. Prager,  A. Prociuk,  E. Ramos,  B. Rana,  D. R. Rehn,  
 F. Rob,  M. Scheurer,  M. Schneider,  N. Sergueev,  S. M. Sharada,  
 S. Sharma,  D. W. Small,  T. Stauch,  C. J. Stein,  T. Stein,  Yu-Chuan Su,  
 S. P. Veccham,  A. J. W. Thom,  A. Tkatchenko,  T. Tsuchimochi,  
 N. M. Tubman,  L. Vogt,  M. L. Vidal,  O. Vydrov,  M. A. Watson,  J. Wenzel,  
 M. de Wergifosse,  T. A. Wesolowski,  A. White,  J. Witte,  A. Yamada,  
 Jun Yang,  K. Yao,  S. Yeganeh,  S. R. Yost,  Zhi-Qiang You,  A. Zech,  
 Igor Ying Zhang,  Xing Zhang,  Yan Zhao,  Ying Zhu,  B. R. Brooks,  
 G. K. L. Chan,  C. J. Cramer,  M. S. Gordon,  W. J. Hehre,  A. Klamt,  
 M. W. Schmidt,  C. D. Sherrill,  D. G. Truhlar,  A. Aspuru-Guzik,  R. Baer,  
 A. T. Bell,  N. A. Besley,  Jeng-Da Chai,  A. E. DePrince, III,  
 R. A. DiStasio Jr.,  A. Dreuw,  B. D. Dunietz,  T. R. Furlani,  
 Chao-Ping Hsu,  Yousung Jung,  Jing Kong,  D. S. Lambrecht,  WanZhen Liang,  
 C. Ochsenfeld,  V. A. Rassolov,  L. V. Slipchenko,  J. E. Subotnik,  
 T. Van Voorhis,  J. M. Herbert,  A. I. Krylov,  P. M. W. Gill,  M. Head-Gordon

 Contributors to earlier versions of Q-Chem not listed above: 
 R. D. Adamson,  B. Austin,  J. Baker,  G. J. O. Beran,  K. Brandhorst,  
 S. T. Brown,  E. F. C. Byrd,  A. K. Chakraborty,  C.-L. Cheng,  
 Siu Hung Chien,  D. M. Chipman,  D. L. Crittenden,  H. Dachsel,  
 R. J. Doerksen,  A. D. Dutoi,  L. Fusti-Molnar,  W. A. Goddard III,  
 A. Golubeva-Zadorozhnaya,  S. R. Gwaltney,  G. Hawkins,  A. Heyden,  
 S. Hirata,  G. Kedziora,  F. J. Keil,  C. Kelley,  Jihan Kim,  R. A. King,  
 R. Z. Khaliullin,  P. P. Korambath,  W. Kurlancheek,  A. M. Lee,  M. S. Lee,  
 S. V. Levchenko,  Ching Yeh Lin,  D. Liotard,  R. C. Lochan,  I. Lotan,  
 P. E. Maslen,  N. Nair,  D. P. O'Neill,  D. Neuhauser,  E. Neuscamman,  
 C. M. Oana,  R. Olson,  B. Peters,  R. Peverati,  P. A. Pieniazek,  
 Y. M. Rhee,  J. Ritchie,  M. A. Rohrdanz,  E. Rosta,  N. J. Russ,  
 H. F. Schaefer III,  N. E. Schultz,  N. Shenvi,  A. C. Simmonett,  A. Sodt,  
 D. Stuck,  K. S. Thanthiriwatte,  V. Vanovschi,  Tao Wang,  A. Warshel,  
 C. F. Williams,  Q. Wu,  X. Xu,  W. Zhang

 Please cite Q-Chem as follows:
 Y. Shao et al., Mol. Phys. 113, 184-215 (2015)
 DOI: 10.1080/00268976.2014.952696

 Q-Chem 5.2.2 for Intel X86 EM64T Linux

 Parts of Q-Chem use Armadillo 9.800.1 (Horizon Scraper).
 http://arma.sourceforge.net/

 Q-Chem begins on Sun Apr 12 05:40:29 2020  

Host: cn0821
0

     Scratch files written to /tmp/ypli/6721342.srvc1/qchem170990//
Warning:  Did not find "$end" marker in "$molecule" section

Checking the input file for inconsistencies... 	...done.

--------------------------------------------------------------
User input:
--------------------------------------------------------------
$rem
   JOBTYPE  sp
   EXCHANGE   omegaB97X-D
   BASIS   6-311+G(2df,2pd)
   max_scf_cycles   250
   geom_opt_max_cycles   1500
   basis2 6-31G*
   scf_algorithm rca_diis
   SYM_IGNORE  TRUE
   print_input   true
   geom_opt_dmax   80
   pop_mulliken false
   XC_GRID 000075000302
$end

$molecule
0 1
C       1.2643980138     -0.0488721292     0.2574195501
C       0.0000000153     -0.0874241166     -0.5950250310
H       1.3848944761     -0.8507597991     0.9866357477
H       1.2005761198     0.8892023621     0.8157622084
H       2.1627821867     0.0158693600     -0.3567730983
C       -1.2643978952     -0.0488721442     0.2574197303
H       0.0000000580     -0.8225844483     -1.4004920491
H       -0.0000002313     0.8991287706     -1.0695268430
H       -1.3848945953     -0.8507597998     0.9866358392
H       -2.1627819217     0.0158700083     -0.3567730745
H       -1.2005762867     0.8892026022     0.8157620392
--------------------------------------------------------------
 ----------------------------------------------------------------
             Standard Nuclear Orientation (Angstroms)
    I     Atom           X                Y                Z
 ----------------------------------------------------------------
    1      C       1.2643980138    -0.0488721292     0.2574195501
    2      C       0.0000000153    -0.0874241166    -0.5950250310
    3      H       1.3848944761    -0.8507597991     0.9866357477
    4      H       1.2005761198     0.8892023621     0.8157622084
    5      H       2.1627821867     0.0158693600    -0.3567730983
    6      C      -1.2643978952    -0.0488721442     0.2574197303
    7      H       0.0000000580    -0.8225844483    -1.4004920491
    8      H      -0.0000002313     0.8991287706    -1.0695268430
    9      H      -1.3848945953    -0.8507597998     0.9866358392
   10      H      -2.1627819217     0.0158700083    -0.3567730745
   11      H      -1.2005762867     0.8892026022     0.8157620392
 ----------------------------------------------------------------
 Nuclear Repulsion Energy =          82.82991372 hartrees
 There are       13 alpha and       13 beta electrons
 Requested basis set is 6-311+G(2df,2pd)
 There are 72 shells and 214 basis functions

 Total QAlloc Memory Limit   2000 MB
 Mega-Array Size       188 MB
 MEM_STATIC part       192 MB

                       Distance Matrix (Angstroms)
             C (  1)   C (  2)   H (  3)   H (  4)   H (  5)   C (  6)
   C (  2)  1.525402
   H (  3)  1.090550  2.236574
   H (  4)  1.093528  2.094159  1.758021
   H (  5)  1.090192  2.178316  1.777893  1.750254
   C (  6)  2.528796  1.525402  2.862434  2.695891  3.482382
   H (  7)  2.223961  1.090522  2.759910  3.046864  2.543616  2.223961
   H (  8)  2.063540  1.094732  3.034444  2.235128  2.442497  2.063539
   H (  9)  2.862435  2.236575  2.769789  3.121110  3.891247  1.090550
   H ( 10)  3.482382  2.178316  3.891247  3.667387  4.325564  1.090192
   H ( 11)  2.695891  2.094159  3.121110  2.401152  3.667387  1.093528
             H (  7)   H (  8)   H (  9)   H ( 10)
   H (  8)  1.753235
   H (  9)  2.759911  3.034444
   H ( 10)  2.543616  2.442496  1.777893
   H ( 11)  3.046864  2.235128  1.758022  1.750254
 
 A cutoff of  1.0D-09 yielded   2534 shell pairs
 There are     22580 function pairs (     27761 Cartesian)
 Smallest overlap matrix eigenvalue = 8.96E-05

 Scale SEOQF with 1.000000e-01/1.000000e-01/1.000000e-01

 Standard Electronic Orientation quadrupole field applied
 Nucleus-field energy     =     0.0000000006 hartrees
 Requested basis set is 6-31G(d)
 There are 28 shells and 58 basis functions
 A cutoff of  1.0D-09 yielded    402 shell pairs
 There are      1773 function pairs (      1968 Cartesian)
 Smallest overlap matrix eigenvalue = 6.57E-03
 Guess from superposition of atomic densities
 Warning:  Energy on first SCF cycle will be non-variational
 SAD guess density has 26.000000 electrons
 Long-range K will be added via erf
 Coulomb attenuation parameter = 0.2 bohr**(-1)
 A restricted hybrid HF-DFT SCF calculation will be
 performed using Relaxed Constraint Minimization + Pulay DIIS
 Exchange:     0.2220 Hartree-Fock + 1.0000 wB97X-D + LR-HF
 Correlation:  1.0000 wB97X-D
 Using Euler-Maclaurin-Lebedev (75,302) quadrature formula
 Dispersion:   Grimme D
 SCF converges when DIIS error is below 1.0E-04
 using 3 threads for integral computing
 -------------------------------------------------------
 OpenMP Integral computing Module                
 Release: version 1.0, May 2013, Q-Chem Inc. Pittsburgh 
 -------------------------------------------------------
 using 3 threads for integral computing
 -------------------------------------------------------
 OpenMP Integral computing Module                
 Release: version 1.0, May 2013, Q-Chem Inc. Pittsburgh 
 -------------------------------------------------------
 ---------------------------------------
  Cycle       Energy         DIIS Error
 ---------------------------------------
    1    -119.6275590186      1.01E-01
    2    -119.0598179455      8.98E-03
    3    -119.0808186155      2.48E-03
    4    -119.0946178943      1.70E-03
    5    -119.0953246680      2.69E-04 Done RCA. Switching to DIIS
    6    -119.0958425040      1.99E-04
    7    -119.0958596502      4.55E-06 Convergence criterion met
 ---------------------------------------
 SCF time:  CPU 32.98 s  wall 11.41 s
 SCF   energy in the small basis set = -119.09585965
 Total energy in the small basis set = -119.09585965
 ----------------------------------------------------
  Cycle       Energy    
 ----------------------------------------------------
    1     -16.5397691336     -1.65E+01
 Long-range K will be added via erf
 Coulomb attenuation parameter = 0.2 bohr**(-1)
 A restricted hybrid HF-DFT SCF calculation will be
 performed using Relaxed Constraint Minimization + Pulay DIIS
 Exchange:     0.2220 Hartree-Fock + 1.0000 wB97X-D + LR-HF
 Correlation:  1.0000 wB97X-D
 Using Euler-Maclaurin-Lebedev (75,302) quadrature formula
 Dispersion:   Grimme D
 SCF converges when DIIS error is below 1.0E-05
 Basis2 calculation detected. Using small basis as guess for larger.
 SCFMinFind is unable to tell whether the solution found is close.
 Resetting ReadMinima to 0 and attempting to follow guess.
 SCFMinFind following SCF Guess.
 using 3 threads for integral computing
 -------------------------------------------------------
 OpenMP Integral computing Module                
 Release: version 1.0, May 2013, Q-Chem Inc. Pittsburgh 
 -------------------------------------------------------
 using 3 threads for integral computing
 -------------------------------------------------------
 OpenMP Integral computing Module                
 Release: version 1.0, May 2013, Q-Chem Inc. Pittsburgh 
 -------------------------------------------------------
 ---------------------------------------
  Cycle       Energy         DIIS Error
 ---------------------------------------
    1    -119.1151556824      4.21E-03
    2    -119.1371777630      5.98E-04 Done RCA. Switching to DIIS
    3    -119.1380132221      4.20E-04
    4    -119.1389771221      4.56E-05
    5    -119.1389918945      1.02E-05
    6    -119.1389925935      3.88E-06 Convergence criterion met
 ---------------------------------------
 SCF time:  CPU 95.42 s  wall 32.28 s
 SCF   energy in the final basis set = -119.13899259
 Total energy in the final basis set = -119.13899259
 
 --------------------------------------------------------------
 
                    Orbital Energies (a.u.)
 --------------------------------------------------------------
 
 Alpha MOs
 -- Occupied --
-10.2750 -10.2658 -10.2658  -0.8834  -0.7772  -0.6775  -0.5488  -0.5233
 -0.4859  -0.4593  -0.4203  -0.4183  -0.4032
 -- Virtual --
  0.0689   0.0859   0.0903   0.0975   0.1251   0.1296   0.1336   0.1385
  0.1436   0.1718   0.1720   0.1917   0.2300   0.2436   0.2438   0.2636
  0.2836   0.2857   0.3091   0.3129   0.3312   0.3497   0.4586   0.4693
  0.4702   0.5046   0.5128   0.5166   0.5425   0.5671   0.5857   0.5959
  0.6061   0.6262   0.6439   0.6440   0.6518   0.6639   0.7106   0.7245
  0.7256   0.7687   0.8171   0.8491   0.8661   0.8891   0.9091   0.9703
  1.0105   1.0323   1.0814   1.1246   1.1347   1.1739   1.1852   1.2013
  1.2311   1.2481   1.2506   1.2907   1.2963   1.3182   1.3246   1.3731
  1.3887   1.3965   1.4182   1.4361   1.4521   1.4614   1.4947   1.5139
  1.5349   1.5747   1.5842   1.6285   1.6322   1.6324   1.6649   1.6993
  1.7476   2.3806   2.4364   2.4713   2.5132   2.5737   2.5864   2.6101
  2.6684   2.7086   2.7741   2.8266   2.8694   2.8960   2.9165   2.9274
  2.9560   2.9674   3.0039   3.0073   3.0546   3.0661   3.0931   3.0962
  3.1268   3.1546   3.1813   3.1943   3.2209   3.2237   3.2582   3.3061
  3.3107   3.3180   3.3381   3.3604   3.3754   3.3931   3.4303   3.4307
  3.4659   3.4845   3.4995   3.5323   3.5658   3.5819   3.5930   3.6171
  3.6453   3.6546   3.6607   3.7016   3.8060   3.8257   3.8440   3.8895
  3.8937   3.9162   3.9441   3.9763   3.9774   4.0195   4.0237   4.0734
  4.0844   4.1033   4.1247   4.1410   4.1698   4.1828   4.1845   4.2133
  4.2288   4.2766   4.2863   4.3457   4.3663   4.4033   4.4250   4.4500
  4.4777   4.5669   4.5895   4.6361   4.6974   4.7973   4.8295   4.9060
  4.9220   4.9504   4.9627   4.9715   4.9910   5.0372   5.0857   5.1217
  5.1372   5.2260   5.2532   5.2540   5.2788   5.3511   5.3592   5.3740
  5.3833   5.4004   5.4938   5.5126   5.5445   5.5817   5.6786   5.7447
  5.9629   6.3851   6.3915   6.4007   6.4218   6.4804  25.1814  25.4390
 25.4541
 --------------------------------------------------------------
 
 -----------------------------------------------------------------
                    Cartesian Multipole Moments
 -----------------------------------------------------------------
    Charge (ESU x 10^10)
                -0.0000
    Dipole Moment (Debye)
         X      -0.0000      Y       0.1190      Z      -0.0854
       Tot       0.1465
    Quadrupole Moments (Debye-Ang)
        XX     -22.1687     XY      -0.0000     YY     -21.4613
        XZ      -0.0000     YZ      -0.0650     ZZ     -21.8050
    Octopole Moments (Debye-Ang^2)
       XXX       0.0000    XXY       0.6320    XYY      -0.0000
       YYY       2.8839    XXZ      -1.4360    XYZ       0.0000
       YYZ       0.5251    XZZ      -0.0000    YZZ      -0.0352
       ZZZ      -0.2922
    Hexadecapole Moments (Debye-Ang^3)
      XXXX    -200.9555   XXXY      -0.0000   XXYY     -42.2406
      XYYY       0.0000   YYYY     -44.1612   XXXZ      -0.0000
      XXYZ      -1.0431   XYYZ       0.0000   YYYZ      -0.4045
      XXZZ     -45.0316   XYZZ       0.0000   YYZZ     -17.3440
      XZZZ       0.0000   YZZZ       0.0226   ZZZZ     -71.8482
 -----------------------------------------------------------------
Archival summary:
1\1\cn0821\SP\ProcedureUnspecified\BasisUnspecified\38\r0852400\SunApr1205:41:172020SunApr1205:41:172020\0\\#,ProcedureUnspecified,BasisUnspecified,\\0,1\C\H,1,1.09052\H,1,1.09473,2,106.701\C,1,1.5254,2,115.455,3,-113.363,0\H,4,1.09019,1,111.699,2,50.3801,0\H,4,1.09055,1,116.531,2,-76.12,0\H,4,1.09353,1,104.989,2,165.459,0\C,1,1.5254,2,115.455,3,113.363,0\H,8,1.09019,1,111.699,2,-50.3801,0\H,8,1.09055,1,116.531,2,76.12,0\H,8,1.09353,1,104.989,2,-165.459,0\\\@

 Total job time:  48.06s(wall), 133.69s(cpu) 
 Sun Apr 12 05:41:17 2020

        *************************************************************
        *                                                           *
        *  Thank you very much for using Q-Chem.  Have a nice day.  *
        *                                                           *
        *************************************************************


