                  Welcome to Q-Chem
     A Quantum Leap Into The Future Of Chemistry


 Q-Chem 5.2 (devel), Q-Chem, Inc., Pleasanton, CA (2019)

 Yihan Shao,  Zhengting Gan,  E. Epifanovsky,  A. T. B. Gilbert,  M. Wormit,  
 J. Kussmann,  A. W. Lange,  A. Behn,  Jia Deng,  Xintian Feng,  D. Ghosh,  
 M. Goldey,  P. R. Horn,  L. D. Jacobson,  I. Kaliman,  T. Kus,  A. Landau,  
 Jie Liu,  E. I. Proynov,  R. M. Richard,  R. P. Steele,  E. J. Sundstrom,  
 H. L. Woodcock III,  P. M. Zimmerman,  D. Zuev,  B. Alam,  B. Albrecht,  
 E. Alguire,  S. A. Baeppler,  D. Barton,  Z. Benda,  Y. A. Bernard,  
 E. J. Berquist,  K. B. Bravaya,  H. Burton,  K. Carter-Fenk,  D. Casanova,  
 Chun-Min Chang,  Yunqing Chen,  A. Chien,  K. D. Closser,  M. P. Coons,  
 S. Coriani,  S. Dasgupta,  A. L. Dempwolff,  M. Diedenhofen,  Hainam Do,  
 R. G. Edgar,  Po-Tung Fang,  S. Faraji,  S. Fatehi,  Qingguo Feng,  
 J. Fosso-Tande,  J. Gayvert,  Qinghui Ge,  A. Ghysels,  G. Gidofalvi,  
 J. Gomes,  J. Gonthier,  A. Gunina,  D. Hait,  M. W. D. Hanson-Heine,  
 P. H. P. Harbach,  A. W. Hauser,  M. F. Herbst,  J. E. Herr,  
 E. G. Hohenstein,  Z. C. Holden,  Kerwin Hui,  B. C. Huynh,  T.-C. Jagau,  
 Hyunjun Ji,  B. Kaduk,  K. Khistyaev,  Jaehoon Kim,  P. Klunzinger,  K. Koh,  
 D. Kosenkov,  L. Koulias,  T. Kowalczyk,  C. M. Krauter,  A. Kunitsa,  
 Ka Un Lao,  A. Laurent,  K. V. Lawler,  Joonho Lee,  D. Lefrancois,  
 S. Lehtola,  D. S. Levine,  Yi-Pei Li,  You-Sheng Lin,  Fenglai Liu,  
 Kuan-Yu Liu,  E. Livshits,  M. Loipersberger,  A. Luenser,  P. Manohar,  
 E. Mansoor,  S. F. Manzer,  Shan-Ping Mao,  Yuezhi Mao,  N. Mardirossian,  
 A. V. Marenich,  T. Markovich,  L. A. Martinez-Martinez,  S. A. Maurer,  
 N. J. Mayhall,  S. C. McKenzie,  J.-M. Mewes,  P. Morgante,  A. F. Morrison,  
 J. W. Mullinax,  K. Nanda,  T. S. Nguyen-Beck,  R. Olivares-Amaya,  
 J. A. Parkhill,  S. K. Paul,  Zheng Pei,  T. M. Perrine,  F. Plasser,  
 P. Pokhilko,  S. Prager,  A. Prociuk,  E. Ramos,  B. Rana,  D. R. Rehn,  
 F. Rob,  M. Scheurer,  M. Schneider,  N. Sergueev,  S. M. Sharada,  
 S. Sharma,  D. W. Small,  T. Stauch,  C. J. Stein,  T. Stein,  Yu-Chuan Su,  
 S. P. Veccham,  A. J. W. Thom,  A. Tkatchenko,  T. Tsuchimochi,  
 N. M. Tubman,  L. Vogt,  M. L. Vidal,  O. Vydrov,  M. A. Watson,  J. Wenzel,  
 M. de Wergifosse,  T. A. Wesolowski,  A. White,  J. Witte,  A. Yamada,  
 Jun Yang,  K. Yao,  S. Yeganeh,  S. R. Yost,  Zhi-Qiang You,  A. Zech,  
 Igor Ying Zhang,  Xing Zhang,  Yan Zhao,  Ying Zhu,  B. R. Brooks,  
 G. K. L. Chan,  C. J. Cramer,  M. S. Gordon,  W. J. Hehre,  A. Klamt,  
 M. W. Schmidt,  C. D. Sherrill,  D. G. Truhlar,  A. Aspuru-Guzik,  R. Baer,  
 A. T. Bell,  N. A. Besley,  Jeng-Da Chai,  A. E. DePrince, III,  
 R. A. DiStasio Jr.,  A. Dreuw,  B. D. Dunietz,  T. R. Furlani,  
 Chao-Ping Hsu,  Yousung Jung,  Jing Kong,  D. S. Lambrecht,  WanZhen Liang,  
 C. Ochsenfeld,  V. A. Rassolov,  L. V. Slipchenko,  J. E. Subotnik,  
 T. Van Voorhis,  J. M. Herbert,  A. I. Krylov,  P. M. W. Gill,  M. Head-Gordon

 Contributors to earlier versions of Q-Chem not listed above: 
 R. D. Adamson,  B. Austin,  J. Baker,  G. J. O. Beran,  K. Brandhorst,  
 S. T. Brown,  E. F. C. Byrd,  A. K. Chakraborty,  C.-L. Cheng,  
 Siu Hung Chien,  D. M. Chipman,  D. L. Crittenden,  H. Dachsel,  
 R. J. Doerksen,  A. D. Dutoi,  L. Fusti-Molnar,  W. A. Goddard III,  
 A. Golubeva-Zadorozhnaya,  S. R. Gwaltney,  G. Hawkins,  A. Heyden,  
 S. Hirata,  G. Kedziora,  F. J. Keil,  C. Kelley,  Jihan Kim,  R. A. King,  
 R. Z. Khaliullin,  P. P. Korambath,  W. Kurlancheek,  A. M. Lee,  M. S. Lee,  
 S. V. Levchenko,  Ching Yeh Lin,  D. Liotard,  R. C. Lochan,  I. Lotan,  
 P. E. Maslen,  N. Nair,  D. P. O'Neill,  D. Neuhauser,  E. Neuscamman,  
 C. M. Oana,  R. Olson,  B. Peters,  R. Peverati,  P. A. Pieniazek,  
 Y. M. Rhee,  J. Ritchie,  M. A. Rohrdanz,  E. Rosta,  N. J. Russ,  
 H. F. Schaefer III,  N. E. Schultz,  N. Shenvi,  A. C. Simmonett,  A. Sodt,  
 D. Stuck,  K. S. Thanthiriwatte,  V. Vanovschi,  Tao Wang,  A. Warshel,  
 C. F. Williams,  Q. Wu,  X. Xu,  W. Zhang

 Please cite Q-Chem as follows:
 Y. Shao et al., Mol. Phys. 113, 184-215 (2015)
 DOI: 10.1080/00268976.2014.952696

 Q-Chem 5.2.2 for Intel X86 EM64T Linux

 Parts of Q-Chem use Armadillo 9.800.1 (Horizon Scraper).
 http://arma.sourceforge.net/

 Q-Chem begins on Sun Apr 12 07:51:05 2020  

Host: cn0821
0

     Scratch files written to /tmp/ypli/6721342.srvc1/qchem190848//
Warning:  Did not find "$end" marker in "$molecule" section

Checking the input file for inconsistencies... 	...done.

--------------------------------------------------------------
User input:
--------------------------------------------------------------
$rem
   JOBTYPE  sp
   EXCHANGE   omegaB97X-D
   BASIS   6-311+G(2df,2pd)
   max_scf_cycles   250
   geom_opt_max_cycles   1500
   basis2 6-31G*
   scf_algorithm rca_diis
   SYM_IGNORE  TRUE
   print_input   true
   geom_opt_dmax   80
   pop_mulliken false
   XC_GRID 000075000302
$end

$molecule
0 1
C       1.2796796480     -0.0563669936     0.2032482983
C       0.0000000076     -0.0334302971     -0.6405577819
H       1.1607436335     -0.7493535028     1.0394825433
H       1.3663565941     0.7107515244     0.9850879987
H       2.0925663236     0.1462832488     -0.4854992752
C       -1.2796793847     -0.0563659254     0.2032490328
H       -0.0000006858     -0.9401448736     -1.2503518238
H       0.0000004079     0.8709499760     -1.2526833464
H       -1.1607472198     -0.7493563425     1.0394807342
H       -2.0925670430     0.1462797466     -0.4854989146
H       -1.3663523418     0.7107541052     0.9850875533
--------------------------------------------------------------
 ----------------------------------------------------------------
             Standard Nuclear Orientation (Angstroms)
    I     Atom           X                Y                Z
 ----------------------------------------------------------------
    1      C       1.2796796480    -0.0563669936     0.2032482983
    2      C       0.0000000076    -0.0334302971    -0.6405577819
    3      H       1.1607436335    -0.7493535028     1.0394825433
    4      H       1.3663565941     0.7107515244     0.9850879987
    5      H       2.0925663236     0.1462832488    -0.4854992752
    6      C      -1.2796793847    -0.0563659254     0.2032490328
    7      H      -0.0000006858    -0.9401448736    -1.2503518238
    8      H       0.0000004079     0.8709499760    -1.2526833464
    9      H      -1.1607472198    -0.7493563425     1.0394807342
   10      H      -2.0925670430     0.1462797466    -0.4854989146
   11      H      -1.3663523418     0.7107541052     0.9850875533
 ----------------------------------------------------------------
 Nuclear Repulsion Energy =          82.70609189 hartrees
 There are       13 alpha and       13 beta electrons
 Requested basis set is 6-311+G(2df,2pd)
 There are 72 shells and 214 basis functions

 Total QAlloc Memory Limit   2000 MB
 Mega-Array Size       188 MB
 MEM_STATIC part       192 MB

                       Distance Matrix (Angstroms)
             C (  1)   C (  2)   H (  3)   H (  4)   H (  5)   C (  6)
   C (  2)  1.533008
   H (  3)  1.092549  2.163887
   H (  4)  1.098752  2.250214  1.475514
   H (  5)  1.084539  2.105985  1.999007  1.734541
   C (  6)  2.559359  1.533009  2.671176  2.863782  3.447823
   H (  7)  2.128755  1.092694  2.574310  3.096705  2.478742  2.128755
   H (  8)  2.148775  1.092063  3.037554  2.626826  2.343618  2.148775
   H (  9)  2.671180  2.163889  2.321491  2.919097  3.702943  1.092549
   H ( 10)  3.447823  2.105986  3.702939  3.800711  4.185133  1.084539
   H ( 11)  2.863779  2.250212  2.919090  2.732709  3.800707  1.098752
             H (  7)   H (  8)   H (  9)   H ( 10)
   H (  8)  1.811096
   H (  9)  2.574309  3.037556
   H ( 10)  2.478740  2.343621  1.999004
   H ( 11)  3.096704  2.626823  1.475518  1.734544
 
 A cutoff of  1.0D-09 yielded   2542 shell pairs
 There are     22608 function pairs (     27795 Cartesian)
 Smallest overlap matrix eigenvalue = 8.36E-05

 Scale SEOQF with 1.000000e-01/1.000000e-01/1.000000e-01

 Standard Electronic Orientation quadrupole field applied
 Nucleus-field energy     =     0.0000000004 hartrees
 Requested basis set is 6-31G(d)
 There are 28 shells and 58 basis functions
 A cutoff of  1.0D-09 yielded    402 shell pairs
 There are      1773 function pairs (      1968 Cartesian)
 Smallest overlap matrix eigenvalue = 6.42E-03
 Guess from superposition of atomic densities
 Warning:  Energy on first SCF cycle will be non-variational
 SAD guess density has 26.000000 electrons
 Long-range K will be added via erf
 Coulomb attenuation parameter = 0.2 bohr**(-1)
 A restricted hybrid HF-DFT SCF calculation will be
 performed using Relaxed Constraint Minimization + Pulay DIIS
 Exchange:     0.2220 Hartree-Fock + 1.0000 wB97X-D + LR-HF
 Correlation:  1.0000 wB97X-D
 Using Euler-Maclaurin-Lebedev (75,302) quadrature formula
 Dispersion:   Grimme D
 SCF converges when DIIS error is below 1.0E-04
 using 3 threads for integral computing
 -------------------------------------------------------
 OpenMP Integral computing Module                
 Release: version 1.0, May 2013, Q-Chem Inc. Pittsburgh 
 -------------------------------------------------------
 using 3 threads for integral computing
 -------------------------------------------------------
 OpenMP Integral computing Module                
 Release: version 1.0, May 2013, Q-Chem Inc. Pittsburgh 
 -------------------------------------------------------
 ---------------------------------------
  Cycle       Energy         DIIS Error
 ---------------------------------------
    1    -119.6262741042      1.00E-01
    2    -119.0064335866      9.40E-03
    3    -119.0299308293      2.63E-03
    4    -119.0453706882      1.79E-03
    5    -119.0461727299      3.04E-04 Done RCA. Switching to DIIS
    6    -119.0467545762      2.19E-04
    7    -119.0467759084      6.78E-06 Convergence criterion met
 ---------------------------------------
 SCF time:  CPU 33.25 s  wall 11.53 s
 SCF   energy in the small basis set = -119.04677591
 Total energy in the small basis set = -119.04677591
 ----------------------------------------------------
  Cycle       Energy    
 ----------------------------------------------------
    1     -16.5254742501     -1.65E+01
 Long-range K will be added via erf
 Coulomb attenuation parameter = 0.2 bohr**(-1)
 A restricted hybrid HF-DFT SCF calculation will be
 performed using Relaxed Constraint Minimization + Pulay DIIS
 Exchange:     0.2220 Hartree-Fock + 1.0000 wB97X-D + LR-HF
 Correlation:  1.0000 wB97X-D
 Using Euler-Maclaurin-Lebedev (75,302) quadrature formula
 Dispersion:   Grimme D
 SCF converges when DIIS error is below 1.0E-05
 Basis2 calculation detected. Using small basis as guess for larger.
 SCFMinFind is unable to tell whether the solution found is close.
 Resetting ReadMinima to 0 and attempting to follow guess.
 SCFMinFind following SCF Guess.
 using 3 threads for integral computing
 -------------------------------------------------------
 OpenMP Integral computing Module                
 Release: version 1.0, May 2013, Q-Chem Inc. Pittsburgh 
 -------------------------------------------------------
 using 3 threads for integral computing
 -------------------------------------------------------
 OpenMP Integral computing Module                
 Release: version 1.0, May 2013, Q-Chem Inc. Pittsburgh 
 -------------------------------------------------------
 ---------------------------------------
  Cycle       Energy         DIIS Error
 ---------------------------------------
    1    -119.0687767392      4.21E-03
    2    -119.0906541547      6.43E-04 Done RCA. Switching to DIIS
    3    -119.0916011241      4.58E-04
    4    -119.0927546473      4.47E-05
    5    -119.0927699397      1.05E-05
    6    -119.0927707412      4.26E-06 Convergence criterion met
 ---------------------------------------
 SCF time:  CPU 97.62 s  wall 33.02 s
 SCF   energy in the final basis set = -119.09277074
 Total energy in the final basis set = -119.09277074
 
 --------------------------------------------------------------
 
                    Orbital Energies (a.u.)
 --------------------------------------------------------------
 
 Alpha MOs
 -- Occupied --
-10.2763 -10.2668 -10.2668  -0.8828  -0.7818  -0.6874  -0.5524  -0.5300
 -0.5149  -0.4384  -0.4357  -0.3860  -0.3843
 -- Virtual --
  0.0668   0.0860   0.0862   0.1040   0.1157   0.1196   0.1368   0.1431
  0.1474   0.1655   0.1697   0.1987   0.2018   0.2200   0.2494   0.2733
  0.2792   0.2817   0.3024   0.3026   0.3421   0.3539   0.4523   0.4692
  0.4742   0.5020   0.5130   0.5379   0.5612   0.5646   0.5762   0.5849
  0.6053   0.6211   0.6302   0.6519   0.6602   0.6816   0.7110   0.7119
  0.7336   0.7737   0.8096   0.8507   0.8739   0.8754   0.8961   0.9241
  0.9560   1.0176   1.0857   1.1097   1.1179   1.1824   1.1924   1.2167
  1.2429   1.2529   1.2706   1.2851   1.2900   1.3338   1.3390   1.3656
  1.3843   1.4081   1.4197   1.4301   1.4338   1.4538   1.4779   1.5121
  1.5360   1.5449   1.5958   1.6134   1.6137   1.6512   1.6826   1.7210
  1.7737   2.4324   2.4599   2.4692   2.5113   2.5443   2.5884   2.5904
  2.6338   2.7365   2.7797   2.7805   2.8061   2.8534   2.9006   2.9160
  2.9416   2.9432   2.9698   2.9950   3.0226   3.0703   3.0848   3.0910
  3.1299   3.1432   3.1625   3.2115   3.2492   3.2513   3.2798   3.3063
  3.3101   3.3305   3.3312   3.3571   3.3973   3.4094   3.4239   3.4588
  3.4791   3.5008   3.5235   3.5627   3.5648   3.5891   3.6021   3.6115
  3.6425   3.6575   3.6846   3.7110   3.7225   3.7645   3.7678   3.8046
  3.8326   3.8518   3.9241   3.9319   3.9503   3.9831   4.0099   4.0253
  4.0487   4.0580   4.0752   4.1293   4.1326   4.1676   4.1848   4.2239
  4.2465   4.2663   4.3449   4.3454   4.3738   4.4013   4.4390   4.4500
  4.5400   4.5420   4.6094   4.6474   4.6491   4.6937   4.7357   4.8030
  4.8364   4.8952   4.8971   4.9320   4.9805   5.0860   5.1189   5.1382
  5.1491   5.1708   5.2746   5.2747   5.3270   5.3381   5.3513   5.4397
  5.4807   5.4987   5.5799   5.6776   5.7423   5.7655   5.8096   5.8123
  6.0031   6.3377   6.4237   6.4489   6.4895   6.5002  25.1707  25.4036
 25.4401
 --------------------------------------------------------------
 
 -----------------------------------------------------------------
                    Cartesian Multipole Moments
 -----------------------------------------------------------------
    Charge (ESU x 10^10)
                 0.0000
    Dipole Moment (Debye)
         X      -0.0000      Y       0.2869      Z       0.1452
       Tot       0.3215
    Quadrupole Moments (Debye-Ang)
        XX     -22.8872     XY       0.0000     YY     -22.7662
        XZ       0.0000     YZ      -0.3941     ZZ     -20.4378
    Octopole Moments (Debye-Ang^2)
       XXX      -0.0000    XXY       3.6967    XYY      -0.0000
       YYY       2.3046    XXZ      -1.3965    XYZ      -0.0000
       YYZ      -0.1151    XZZ       0.0000    YZZ       0.4340
       ZZZ       4.0910
    Hexadecapole Moments (Debye-Ang^3)
      XXXX    -206.6667   XXXY       0.0001   XXYY     -44.6679
      XYYY       0.0000   YYYY     -44.5725   XXXZ       0.0000
      XXYZ      -0.4065   XYYZ      -0.0000   YYYZ       0.4648
      XXZZ     -43.0317   XYZZ       0.0000   YYZZ     -17.9553
      XZZZ       0.0000   YZZZ      -0.2229   ZZZZ     -74.1280
 -----------------------------------------------------------------
Archival summary:
1\1\cn0821\SP\ProcedureUnspecified\BasisUnspecified\38\r0852400\SunApr1207:51:542020SunApr1207:51:542020\0\\#,ProcedureUnspecified,BasisUnspecified,\\0,1\C\H,1,1.09206\H,1,1.09269,2,111.986\C,1,1.53301,2,108.718,3,118.192,0\H,4,1.08454,1,105.862,2,-48.9401,0\H,4,1.09255,1,109.872,2,161.608,0\H,4,1.09875,1,116.556,2,67.6024,0\C,1,1.53301,2,108.718,3,-118.192,0\H,8,1.08454,1,105.862,2,48.9404,0\H,8,1.09255,1,109.872,2,-161.608,0\H,8,1.09875,1,116.556,2,-67.6024,0\\\@

 Total job time:  48.84s(wall), 136.09s(cpu) 
 Sun Apr 12 07:51:54 2020

        *************************************************************
        *                                                           *
        *  Thank you very much for using Q-Chem.  Have a nice day.  *
        *                                                           *
        *************************************************************


