                  Welcome to Q-Chem
     A Quantum Leap Into The Future Of Chemistry


 Q-Chem 5.2 (devel), Q-Chem, Inc., Pleasanton, CA (2019)

 Yihan Shao,  Zhengting Gan,  E. Epifanovsky,  A. T. B. Gilbert,  M. Wormit,  
 J. Kussmann,  A. W. Lange,  A. Behn,  Jia Deng,  Xintian Feng,  D. Ghosh,  
 M. Goldey,  P. R. Horn,  L. D. Jacobson,  I. Kaliman,  T. Kus,  A. Landau,  
 Jie Liu,  E. I. Proynov,  R. M. Richard,  R. P. Steele,  E. J. Sundstrom,  
 H. L. Woodcock III,  P. M. Zimmerman,  D. Zuev,  B. Alam,  B. Albrecht,  
 E. Alguire,  S. A. Baeppler,  D. Barton,  Z. Benda,  Y. A. Bernard,  
 E. J. Berquist,  K. B. Bravaya,  H. Burton,  K. Carter-Fenk,  D. Casanova,  
 Chun-Min Chang,  Yunqing Chen,  A. Chien,  K. D. Closser,  M. P. Coons,  
 S. Coriani,  S. Dasgupta,  A. L. Dempwolff,  M. Diedenhofen,  Hainam Do,  
 R. G. Edgar,  Po-Tung Fang,  S. Faraji,  S. Fatehi,  Qingguo Feng,  
 J. Fosso-Tande,  J. Gayvert,  Qinghui Ge,  A. Ghysels,  G. Gidofalvi,  
 J. Gomes,  J. Gonthier,  A. Gunina,  D. Hait,  M. W. D. Hanson-Heine,  
 P. H. P. Harbach,  A. W. Hauser,  M. F. Herbst,  J. E. Herr,  
 E. G. Hohenstein,  Z. C. Holden,  Kerwin Hui,  B. C. Huynh,  T.-C. Jagau,  
 Hyunjun Ji,  B. Kaduk,  K. Khistyaev,  Jaehoon Kim,  P. Klunzinger,  K. Koh,  
 D. Kosenkov,  L. Koulias,  T. Kowalczyk,  C. M. Krauter,  A. Kunitsa,  
 Ka Un Lao,  A. Laurent,  K. V. Lawler,  Joonho Lee,  D. Lefrancois,  
 S. Lehtola,  D. S. Levine,  Yi-Pei Li,  You-Sheng Lin,  Fenglai Liu,  
 Kuan-Yu Liu,  E. Livshits,  M. Loipersberger,  A. Luenser,  P. Manohar,  
 E. Mansoor,  S. F. Manzer,  Shan-Ping Mao,  Yuezhi Mao,  N. Mardirossian,  
 A. V. Marenich,  T. Markovich,  L. A. Martinez-Martinez,  S. A. Maurer,  
 N. J. Mayhall,  S. C. McKenzie,  J.-M. Mewes,  P. Morgante,  A. F. Morrison,  
 J. W. Mullinax,  K. Nanda,  T. S. Nguyen-Beck,  R. Olivares-Amaya,  
 J. A. Parkhill,  S. K. Paul,  Zheng Pei,  T. M. Perrine,  F. Plasser,  
 P. Pokhilko,  S. Prager,  A. Prociuk,  E. Ramos,  B. Rana,  D. R. Rehn,  
 F. Rob,  M. Scheurer,  M. Schneider,  N. Sergueev,  S. M. Sharada,  
 S. Sharma,  D. W. Small,  T. Stauch,  C. J. Stein,  T. Stein,  Yu-Chuan Su,  
 S. P. Veccham,  A. J. W. Thom,  A. Tkatchenko,  T. Tsuchimochi,  
 N. M. Tubman,  L. Vogt,  M. L. Vidal,  O. Vydrov,  M. A. Watson,  J. Wenzel,  
 M. de Wergifosse,  T. A. Wesolowski,  A. White,  J. Witte,  A. Yamada,  
 Jun Yang,  K. Yao,  S. Yeganeh,  S. R. Yost,  Zhi-Qiang You,  A. Zech,  
 Igor Ying Zhang,  Xing Zhang,  Yan Zhao,  Ying Zhu,  B. R. Brooks,  
 G. K. L. Chan,  C. J. Cramer,  M. S. Gordon,  W. J. Hehre,  A. Klamt,  
 M. W. Schmidt,  C. D. Sherrill,  D. G. Truhlar,  A. Aspuru-Guzik,  R. Baer,  
 A. T. Bell,  N. A. Besley,  Jeng-Da Chai,  A. E. DePrince, III,  
 R. A. DiStasio Jr.,  A. Dreuw,  B. D. Dunietz,  T. R. Furlani,  
 Chao-Ping Hsu,  Yousung Jung,  Jing Kong,  D. S. Lambrecht,  WanZhen Liang,  
 C. Ochsenfeld,  V. A. Rassolov,  L. V. Slipchenko,  J. E. Subotnik,  
 T. Van Voorhis,  J. M. Herbert,  A. I. Krylov,  P. M. W. Gill,  M. Head-Gordon

 Contributors to earlier versions of Q-Chem not listed above: 
 R. D. Adamson,  B. Austin,  J. Baker,  G. J. O. Beran,  K. Brandhorst,  
 S. T. Brown,  E. F. C. Byrd,  A. K. Chakraborty,  C.-L. Cheng,  
 Siu Hung Chien,  D. M. Chipman,  D. L. Crittenden,  H. Dachsel,  
 R. J. Doerksen,  A. D. Dutoi,  L. Fusti-Molnar,  W. A. Goddard III,  
 A. Golubeva-Zadorozhnaya,  S. R. Gwaltney,  G. Hawkins,  A. Heyden,  
 S. Hirata,  G. Kedziora,  F. J. Keil,  C. Kelley,  Jihan Kim,  R. A. King,  
 R. Z. Khaliullin,  P. P. Korambath,  W. Kurlancheek,  A. M. Lee,  M. S. Lee,  
 S. V. Levchenko,  Ching Yeh Lin,  D. Liotard,  R. C. Lochan,  I. Lotan,  
 P. E. Maslen,  N. Nair,  D. P. O'Neill,  D. Neuhauser,  E. Neuscamman,  
 C. M. Oana,  R. Olson,  B. Peters,  R. Peverati,  P. A. Pieniazek,  
 Y. M. Rhee,  J. Ritchie,  M. A. Rohrdanz,  E. Rosta,  N. J. Russ,  
 H. F. Schaefer III,  N. E. Schultz,  N. Shenvi,  A. C. Simmonett,  A. Sodt,  
 D. Stuck,  K. S. Thanthiriwatte,  V. Vanovschi,  Tao Wang,  A. Warshel,  
 C. F. Williams,  Q. Wu,  X. Xu,  W. Zhang

 Please cite Q-Chem as follows:
 Y. Shao et al., Mol. Phys. 113, 184-215 (2015)
 DOI: 10.1080/00268976.2014.952696

 Q-Chem 5.2.2 for Intel X86 EM64T Linux

 Parts of Q-Chem use Armadillo 9.800.1 (Horizon Scraper).
 http://arma.sourceforge.net/

 Q-Chem begins on Sun Apr 12 08:08:41 2020  

Host: cn0821
0

     Scratch files written to /tmp/ypli/6721342.srvc1/qchem193537//
Warning:  Did not find "$end" marker in "$molecule" section

Checking the input file for inconsistencies... 	...done.

--------------------------------------------------------------
User input:
--------------------------------------------------------------
$rem
   JOBTYPE  sp
   EXCHANGE   omegaB97X-D
   BASIS   6-311+G(2df,2pd)
   max_scf_cycles   250
   geom_opt_max_cycles   1500
   basis2 6-31G*
   scf_algorithm rca_diis
   SYM_IGNORE  TRUE
   print_input   true
   geom_opt_dmax   80
   pop_mulliken false
   XC_GRID 000075000302
$end

$molecule
0 1
C       1.2658740331     -0.0000201185     0.2503940222
C       -0.0000001463     0.0000636536     -0.6118408782
H       1.3045821169     -0.8761535942     0.8903439469
H       1.3045437729     0.8764288717     0.8906798284
H       2.1804247506     -0.0000200603     -0.3829279391
C       -1.2658744034     -0.0000200937     0.2503942124
H       -0.0000001059     -0.7573539874     -1.1723535593
H       -0.0000003046     0.7568197373     -1.1717396675
H       -1.3045821792     -0.8761516734     0.8903428418
H       -2.1804235717     -0.0000196251     -0.3829267071
H       -1.3045440228     0.8764275561     0.8906789184
--------------------------------------------------------------
 ----------------------------------------------------------------
             Standard Nuclear Orientation (Angstroms)
    I     Atom           X                Y                Z
 ----------------------------------------------------------------
    1      C       1.2658740331    -0.0000201185     0.2503940222
    2      C      -0.0000001463     0.0000636536    -0.6118408782
    3      H       1.3045821169    -0.8761535942     0.8903439469
    4      H       1.3045437729     0.8764288717     0.8906798284
    5      H       2.1804247506    -0.0000200603    -0.3829279391
    6      C      -1.2658744034    -0.0000200937     0.2503942124
    7      H      -0.0000001059    -0.7573539874    -1.1723535593
    8      H      -0.0000003046     0.7568197373    -1.1717396675
    9      H      -1.3045821792    -0.8761516734     0.8903428418
   10      H      -2.1804235717    -0.0000196251    -0.3829267071
   11      H      -1.3045440228     0.8764275561     0.8906789184
 ----------------------------------------------------------------
 Nuclear Repulsion Energy =          83.86156367 hartrees
 There are       13 alpha and       13 beta electrons
 Requested basis set is 6-311+G(2df,2pd)
 There are 72 shells and 214 basis functions

 Total QAlloc Memory Limit   2000 MB
 Mega-Array Size       188 MB
 MEM_STATIC part       192 MB

                       Distance Matrix (Angstroms)
             C (  1)   C (  2)   H (  3)   H (  4)   H (  5)   C (  6)
   C (  2)  1.531629
   H (  3)  1.085654  2.173994
   H (  4)  1.086105  2.174263  1.752582
   H (  5)  1.112430  2.192408  1.776494  1.776909
   C (  6)  2.531748  1.531629  2.790052  2.790193  3.504008
   H (  7)  2.049440  0.942261  2.443516  2.937208  2.439467  2.049440
   H (  8)  2.048831  0.941364  2.936107  2.443300  2.439115  2.048831
   H (  9)  2.790051  2.173993  2.609164  3.143100  3.812361  1.085651
   H ( 10)  3.504007  2.192407  3.812361  3.812510  4.360848  1.112428
   H ( 11)  2.790193  2.174262  3.143100  2.609088  3.812511  1.086103
             H (  7)   H (  8)   H (  9)   H ( 10)
   H (  8)  1.514174
   H (  9)  2.443515  2.936105
   H ( 10)  2.439466  2.439114  1.776491
   H ( 11)  2.937206  2.443299  1.752579  1.776906
 
 A cutoff of  1.0D-09 yielded   2540 shell pairs
 There are     22602 function pairs (     27783 Cartesian)
 Smallest overlap matrix eigenvalue = 8.77E-05

 Scale SEOQF with 1.000000e-01/1.000000e-01/1.000000e-01

 Standard Electronic Orientation quadrupole field applied
 Nucleus-field energy     =     0.0000000006 hartrees
 Requested basis set is 6-31G(d)
 There are 28 shells and 58 basis functions
 A cutoff of  1.0D-09 yielded    402 shell pairs
 There are      1773 function pairs (      1968 Cartesian)
 Smallest overlap matrix eigenvalue = 6.33E-03
 Guess from superposition of atomic densities
 Warning:  Energy on first SCF cycle will be non-variational
 SAD guess density has 26.000000 electrons
 Long-range K will be added via erf
 Coulomb attenuation parameter = 0.2 bohr**(-1)
 A restricted hybrid HF-DFT SCF calculation will be
 performed using Relaxed Constraint Minimization + Pulay DIIS
 Exchange:     0.2220 Hartree-Fock + 1.0000 wB97X-D + LR-HF
 Correlation:  1.0000 wB97X-D
 Using Euler-Maclaurin-Lebedev (75,302) quadrature formula
 Dispersion:   Grimme D
 SCF converges when DIIS error is below 1.0E-04
 using 3 threads for integral computing
 -------------------------------------------------------
 OpenMP Integral computing Module                
 Release: version 1.0, May 2013, Q-Chem Inc. Pittsburgh 
 -------------------------------------------------------
 using 3 threads for integral computing
 -------------------------------------------------------
 OpenMP Integral computing Module                
 Release: version 1.0, May 2013, Q-Chem Inc. Pittsburgh 
 -------------------------------------------------------
 ---------------------------------------
  Cycle       Energy         DIIS Error
 ---------------------------------------
    1    -119.7556209129      1.07E-01
    2    -119.0211662078      9.71E-03
    3    -119.0460474380      2.91E-03
    4    -119.0610387711      1.99E-03
    5    -119.0620185299      3.61E-04 Done RCA. Switching to DIIS
    6    -119.0626885982      2.60E-04
    7    -119.0627173039      6.17E-06 Convergence criterion met
 ---------------------------------------
 SCF time:  CPU 33.84 s  wall 11.68 s
 SCF   energy in the small basis set = -119.06271730
 Total energy in the small basis set = -119.06271730
 ----------------------------------------------------
  Cycle       Energy    
 ----------------------------------------------------
    1     -16.6413230426     -1.66E+01
 Long-range K will be added via erf
 Coulomb attenuation parameter = 0.2 bohr**(-1)
 A restricted hybrid HF-DFT SCF calculation will be
 performed using Relaxed Constraint Minimization + Pulay DIIS
 Exchange:     0.2220 Hartree-Fock + 1.0000 wB97X-D + LR-HF
 Correlation:  1.0000 wB97X-D
 Using Euler-Maclaurin-Lebedev (75,302) quadrature formula
 Dispersion:   Grimme D
 SCF converges when DIIS error is below 1.0E-05
 Basis2 calculation detected. Using small basis as guess for larger.
 SCFMinFind is unable to tell whether the solution found is close.
 Resetting ReadMinima to 0 and attempting to follow guess.
 SCFMinFind following SCF Guess.
 using 3 threads for integral computing
 -------------------------------------------------------
 OpenMP Integral computing Module                
 Release: version 1.0, May 2013, Q-Chem Inc. Pittsburgh 
 -------------------------------------------------------
 using 3 threads for integral computing
 -------------------------------------------------------
 OpenMP Integral computing Module                
 Release: version 1.0, May 2013, Q-Chem Inc. Pittsburgh 
 -------------------------------------------------------
 ---------------------------------------
  Cycle       Energy         DIIS Error
 ---------------------------------------
    1    -119.0847044878      4.22E-03
    2    -119.1068745280      6.11E-04 Done RCA. Switching to DIIS
    3    -119.1077887420      4.10E-04
    4    -119.1086957592      4.35E-05
    5    -119.1087091939      6.92E-06 Convergence criterion met
 ---------------------------------------
 SCF time:  CPU 85.26 s  wall 28.81 s
 SCF   energy in the final basis set = -119.10870919
 Total energy in the final basis set = -119.10870919
 
 --------------------------------------------------------------
 
                    Orbital Energies (a.u.)
 --------------------------------------------------------------
 
 Alpha MOs
 -- Occupied --
-10.2644 -10.2644 -10.2393  -0.8905  -0.7733  -0.7016  -0.5619  -0.5193
 -0.4809  -0.4634  -0.4249  -0.4243  -0.4115
 -- Virtual --
  0.0685   0.0867   0.0915   0.1004   0.1257   0.1304   0.1339   0.1419
  0.1456   0.1687   0.1733   0.1917   0.2371   0.2459   0.2477   0.2803
  0.2833   0.2947   0.3105   0.3123   0.3459   0.3496   0.4579   0.4650
  0.4720   0.5133   0.5139   0.5209   0.5451   0.5679   0.5880   0.6036
  0.6226   0.6265   0.6386   0.6623   0.6674   0.6784   0.7138   0.7286
  0.7652   0.7933   0.8363   0.8690   0.8809   0.8835   0.8934   0.9688
  1.0034   1.0497   1.0813   1.1333   1.1371   1.1875   1.2025   1.2151
  1.2482   1.2646   1.2922   1.2932   1.3059   1.3163   1.3219   1.3787
  1.3838   1.3883   1.3904   1.4560   1.4714   1.4744   1.5042   1.5222
  1.5323   1.5756   1.6186   1.6487   1.6818   1.6846   1.6971   1.7056
  1.8426   2.3832   2.3886   2.4507   2.5094   2.5233   2.6001   2.6001
  2.6578   2.7096   2.8234   2.8290   2.8685   2.9127   2.9290   2.9318
  2.9570   2.9646   3.0261   3.0365   3.0551   3.0679   3.0797   3.0922
  3.1703   3.1728   3.1762   3.2195   3.2225   3.2394   3.2827   3.3092
  3.3303   3.3432   3.3439   3.3653   3.3938   3.4024   3.4394   3.4738
  3.4843   3.4907   3.5336   3.5505   3.5672   3.5794   3.5891   3.6160
  3.6873   3.6945   3.7034   3.7615   3.8079   3.8429   3.8677   3.9052
  3.9243   3.9298   3.9650   3.9728   3.9935   4.0105   4.0661   4.1190
  4.1215   4.1229   4.1330   4.1505   4.1952   4.2176   4.2180   4.2282
  4.2401   4.3352   4.3763   4.3858   4.3894   4.4179   4.4359   4.4782
  4.5919   4.6610   4.6842   4.7165   4.7512   4.8097   4.8473   4.9364
  4.9526   5.0072   5.0184   5.0743   5.1060   5.1200   5.1638   5.1718
  5.2599   5.2666   5.2786   5.3075   5.3535   5.3635   5.4113   5.4434
  5.5148   5.5915   5.6310   5.7066   5.7976   5.8778   5.8990   5.9276
  6.3321   6.3658   6.3983   6.4071   6.4107   6.8218  25.4026  25.4299
 25.4804
 --------------------------------------------------------------
 
 -----------------------------------------------------------------
                    Cartesian Multipole Moments
 -----------------------------------------------------------------
    Charge (ESU x 10^10)
                -0.0000
    Dipole Moment (Debye)
         X      -0.0000      Y      -0.0003      Z      -0.2224
       Tot       0.2224
    Quadrupole Moments (Debye-Ang)
        XX     -22.2455     XY      -0.0000     YY     -21.1628
        XZ      -0.0000     YZ      -0.0003     ZZ     -21.3627
    Octopole Moments (Debye-Ang^2)
       XXX      -0.0000    XXY      -0.0023    XYY      -0.0000
       YYY      -0.0011    XXZ      -1.7096    XYZ       0.0000
       YYZ       0.4822    XZZ      -0.0000    YZZ      -0.0001
       ZZZ      -1.0955
    Hexadecapole Moments (Debye-Ang^3)
      XXXX    -205.6078   XXXY       0.0000   XXYY     -42.0331
      XYYY       0.0000   YYYY     -40.8980   XXXZ      -0.0000
      XXYZ      -0.0037   XYYZ       0.0000   YYYZ      -0.0077
      XXZZ     -44.7404   XYZZ       0.0000   YYZZ     -16.1693
      XZZZ      -0.0000   YZZZ      -0.0080   ZZZZ     -67.3383
 -----------------------------------------------------------------
Archival summary:
1\1\cn0821\SP\ProcedureUnspecified\BasisUnspecified\38\r0852400\SunApr1208:09:262020SunApr1208:09:262020\0\\#,ProcedureUnspecified,BasisUnspecified,\\0,1\C\H,1,0.941364\H,1,0.942261,2,107.001\C,1,1.53163,2,109.565,3,118.702,0\H,4,1.08565,1,111.183,2,-178.618,0\H,4,1.08611,1,111.177,2,61.5141,0\H,4,1.11243,1,111.037,2,-58.5528,0\C,1,1.53163,2,109.565,3,-118.702,0\H,8,1.08565,1,111.183,2,178.618,0\H,8,1.0861,1,111.177,2,-61.5141,0\H,8,1.11243,1,111.037,2,58.5527,0\\\@

 Total job time:  44.77s(wall), 124.21s(cpu) 
 Sun Apr 12 08:09:26 2020

        *************************************************************
        *                                                           *
        *  Thank you very much for using Q-Chem.  Have a nice day.  *
        *                                                           *
        *************************************************************


