                  Welcome to Q-Chem
     A Quantum Leap Into The Future Of Chemistry


 Q-Chem 5.2 (devel), Q-Chem, Inc., Pleasanton, CA (2019)

 Yihan Shao,  Zhengting Gan,  E. Epifanovsky,  A. T. B. Gilbert,  M. Wormit,  
 J. Kussmann,  A. W. Lange,  A. Behn,  Jia Deng,  Xintian Feng,  D. Ghosh,  
 M. Goldey,  P. R. Horn,  L. D. Jacobson,  I. Kaliman,  T. Kus,  A. Landau,  
 Jie Liu,  E. I. Proynov,  R. M. Richard,  R. P. Steele,  E. J. Sundstrom,  
 H. L. Woodcock III,  P. M. Zimmerman,  D. Zuev,  B. Alam,  B. Albrecht,  
 E. Alguire,  S. A. Baeppler,  D. Barton,  Z. Benda,  Y. A. Bernard,  
 E. J. Berquist,  K. B. Bravaya,  H. Burton,  K. Carter-Fenk,  D. Casanova,  
 Chun-Min Chang,  Yunqing Chen,  A. Chien,  K. D. Closser,  M. P. Coons,  
 S. Coriani,  S. Dasgupta,  A. L. Dempwolff,  M. Diedenhofen,  Hainam Do,  
 R. G. Edgar,  Po-Tung Fang,  S. Faraji,  S. Fatehi,  Qingguo Feng,  
 J. Fosso-Tande,  J. Gayvert,  Qinghui Ge,  A. Ghysels,  G. Gidofalvi,  
 J. Gomes,  J. Gonthier,  A. Gunina,  D. Hait,  M. W. D. Hanson-Heine,  
 P. H. P. Harbach,  A. W. Hauser,  M. F. Herbst,  J. E. Herr,  
 E. G. Hohenstein,  Z. C. Holden,  Kerwin Hui,  B. C. Huynh,  T.-C. Jagau,  
 Hyunjun Ji,  B. Kaduk,  K. Khistyaev,  Jaehoon Kim,  P. Klunzinger,  K. Koh,  
 D. Kosenkov,  L. Koulias,  T. Kowalczyk,  C. M. Krauter,  A. Kunitsa,  
 Ka Un Lao,  A. Laurent,  K. V. Lawler,  Joonho Lee,  D. Lefrancois,  
 S. Lehtola,  D. S. Levine,  Yi-Pei Li,  You-Sheng Lin,  Fenglai Liu,  
 Kuan-Yu Liu,  E. Livshits,  M. Loipersberger,  A. Luenser,  P. Manohar,  
 E. Mansoor,  S. F. Manzer,  Shan-Ping Mao,  Yuezhi Mao,  N. Mardirossian,  
 A. V. Marenich,  T. Markovich,  L. A. Martinez-Martinez,  S. A. Maurer,  
 N. J. Mayhall,  S. C. McKenzie,  J.-M. Mewes,  P. Morgante,  A. F. Morrison,  
 J. W. Mullinax,  K. Nanda,  T. S. Nguyen-Beck,  R. Olivares-Amaya,  
 J. A. Parkhill,  S. K. Paul,  Zheng Pei,  T. M. Perrine,  F. Plasser,  
 P. Pokhilko,  S. Prager,  A. Prociuk,  E. Ramos,  B. Rana,  D. R. Rehn,  
 F. Rob,  M. Scheurer,  M. Schneider,  N. Sergueev,  S. M. Sharada,  
 S. Sharma,  D. W. Small,  T. Stauch,  C. J. Stein,  T. Stein,  Yu-Chuan Su,  
 S. P. Veccham,  A. J. W. Thom,  A. Tkatchenko,  T. Tsuchimochi,  
 N. M. Tubman,  L. Vogt,  M. L. Vidal,  O. Vydrov,  M. A. Watson,  J. Wenzel,  
 M. de Wergifosse,  T. A. Wesolowski,  A. White,  J. Witte,  A. Yamada,  
 Jun Yang,  K. Yao,  S. Yeganeh,  S. R. Yost,  Zhi-Qiang You,  A. Zech,  
 Igor Ying Zhang,  Xing Zhang,  Yan Zhao,  Ying Zhu,  B. R. Brooks,  
 G. K. L. Chan,  C. J. Cramer,  M. S. Gordon,  W. J. Hehre,  A. Klamt,  
 M. W. Schmidt,  C. D. Sherrill,  D. G. Truhlar,  A. Aspuru-Guzik,  R. Baer,  
 A. T. Bell,  N. A. Besley,  Jeng-Da Chai,  A. E. DePrince, III,  
 R. A. DiStasio Jr.,  A. Dreuw,  B. D. Dunietz,  T. R. Furlani,  
 Chao-Ping Hsu,  Yousung Jung,  Jing Kong,  D. S. Lambrecht,  WanZhen Liang,  
 C. Ochsenfeld,  V. A. Rassolov,  L. V. Slipchenko,  J. E. Subotnik,  
 T. Van Voorhis,  J. M. Herbert,  A. I. Krylov,  P. M. W. Gill,  M. Head-Gordon

 Contributors to earlier versions of Q-Chem not listed above: 
 R. D. Adamson,  B. Austin,  J. Baker,  G. J. O. Beran,  K. Brandhorst,  
 S. T. Brown,  E. F. C. Byrd,  A. K. Chakraborty,  C.-L. Cheng,  
 Siu Hung Chien,  D. M. Chipman,  D. L. Crittenden,  H. Dachsel,  
 R. J. Doerksen,  A. D. Dutoi,  L. Fusti-Molnar,  W. A. Goddard III,  
 A. Golubeva-Zadorozhnaya,  S. R. Gwaltney,  G. Hawkins,  A. Heyden,  
 S. Hirata,  G. Kedziora,  F. J. Keil,  C. Kelley,  Jihan Kim,  R. A. King,  
 R. Z. Khaliullin,  P. P. Korambath,  W. Kurlancheek,  A. M. Lee,  M. S. Lee,  
 S. V. Levchenko,  Ching Yeh Lin,  D. Liotard,  R. C. Lochan,  I. Lotan,  
 P. E. Maslen,  N. Nair,  D. P. O'Neill,  D. Neuhauser,  E. Neuscamman,  
 C. M. Oana,  R. Olson,  B. Peters,  R. Peverati,  P. A. Pieniazek,  
 Y. M. Rhee,  J. Ritchie,  M. A. Rohrdanz,  E. Rosta,  N. J. Russ,  
 H. F. Schaefer III,  N. E. Schultz,  N. Shenvi,  A. C. Simmonett,  A. Sodt,  
 D. Stuck,  K. S. Thanthiriwatte,  V. Vanovschi,  Tao Wang,  A. Warshel,  
 C. F. Williams,  Q. Wu,  X. Xu,  W. Zhang

 Please cite Q-Chem as follows:
 Y. Shao et al., Mol. Phys. 113, 184-215 (2015)
 DOI: 10.1080/00268976.2014.952696

 Q-Chem 5.2.2 for Intel X86 EM64T Linux

 Parts of Q-Chem use Armadillo 9.800.1 (Horizon Scraper).
 http://arma.sourceforge.net/

 Q-Chem begins on Sun Apr 12 05:50:15 2020  

Host: cn0821
0

     Scratch files written to /tmp/ypli/6721342.srvc1/qchem172415//
Warning:  Did not find "$end" marker in "$molecule" section

Checking the input file for inconsistencies... 	...done.

--------------------------------------------------------------
User input:
--------------------------------------------------------------
$rem
   JOBTYPE  sp
   EXCHANGE   omegaB97X-D
   BASIS   6-311+G(2df,2pd)
   max_scf_cycles   250
   geom_opt_max_cycles   1500
   basis2 6-31G*
   scf_algorithm rca_diis
   SYM_IGNORE  TRUE
   print_input   true
   geom_opt_dmax   80
   pop_mulliken false
   XC_GRID 000075000302
$end

$molecule
0 1
C       1.3183085631     0.0023216860     0.2586008497
C       -0.0000000347     0.0013006580     -0.6542049603
H       1.3015522550     -0.8756575970     0.9086339838
H       1.3062479139     0.8758062904     0.9143102144
H       2.2697785586     -0.0021624163     -0.2753196997
C       -1.3183087950     0.0023216234     0.2586005627
H       0.0000004670     -0.8757716853     -1.3055466495
H       -0.0000000753     0.8738548776     -1.3116539004
H       -1.3015521818     -0.8756573200     0.9086341329
H       -2.2697791161     -0.0021617364     -0.2753193808
H       -1.3062476152     0.8758062857     0.9143098661
--------------------------------------------------------------
 ----------------------------------------------------------------
             Standard Nuclear Orientation (Angstroms)
    I     Atom           X                Y                Z
 ----------------------------------------------------------------
    1      C       1.3183085631     0.0023216860     0.2586008497
    2      C      -0.0000000347     0.0013006580    -0.6542049603
    3      H       1.3015522550    -0.8756575970     0.9086339838
    4      H       1.3062479139     0.8758062904     0.9143102144
    5      H       2.2697785586    -0.0021624163    -0.2753196997
    6      C      -1.3183087950     0.0023216234     0.2586005627
    7      H       0.0000004670    -0.8757716853    -1.3055466495
    8      H      -0.0000000753     0.8738548776    -1.3116539004
    9      H      -1.3015521818    -0.8756573200     0.9086341329
   10      H      -2.2697791161    -0.0021617364    -0.2753193808
   11      H      -1.3062476152     0.8758062857     0.9143098661
 ----------------------------------------------------------------
 Nuclear Repulsion Energy =          80.46876033 hartrees
 There are       13 alpha and       13 beta electrons
 Requested basis set is 6-311+G(2df,2pd)
 There are 72 shells and 214 basis functions

 Total QAlloc Memory Limit   2000 MB
 Mega-Array Size       188 MB
 MEM_STATIC part       192 MB

                       Distance Matrix (Angstroms)
             C (  1)   C (  2)   H (  3)   H (  4)   H (  5)   C (  6)
   C (  2)  1.603482
   H (  3)  1.092553  2.214850
   H (  4)  1.092280  2.220649  1.751479
   H (  5)  1.091048  2.301187  1.761307  1.764778
   C (  6)  2.636617  1.603482  2.838497  2.842750  3.627597
   H (  7)  2.226105  1.092475  2.568391  3.114815  2.641298  2.226105
   H (  8)  2.227826  1.092515  3.111995  2.580931  2.644483  2.227826
   H (  9)  2.838496  2.214850  2.603104  3.141382  3.862531  1.092553
   H ( 10)  3.627598  2.301187  3.862531  3.869627  4.539558  1.091048
   H ( 11)  2.842750  2.220649  3.141382  2.612496  3.869627  1.092280
             H (  7)   H (  8)   H (  9)   H ( 10)
   H (  8)  1.749637
   H (  9)  2.568392  3.111994
   H ( 10)  2.641299  2.644483  1.761307
   H ( 11)  3.114815  2.580930  1.751479  1.764777
 
 A cutoff of  1.0D-09 yielded   2522 shell pairs
 There are     22542 function pairs (     27723 Cartesian)
 Smallest overlap matrix eigenvalue = 1.18E-04

 Scale SEOQF with 1.000000e-01/1.000000e-01/1.000000e-01

 Standard Electronic Orientation quadrupole field applied
 Nucleus-field energy     =     0.0000000006 hartrees
 Requested basis set is 6-31G(d)
 There are 28 shells and 58 basis functions
 A cutoff of  1.0D-09 yielded    402 shell pairs
 There are      1773 function pairs (      1968 Cartesian)
 Smallest overlap matrix eigenvalue = 8.54E-03
 Guess from superposition of atomic densities
 Warning:  Energy on first SCF cycle will be non-variational
 SAD guess density has 26.000000 electrons
 Long-range K will be added via erf
 Coulomb attenuation parameter = 0.2 bohr**(-1)
 A restricted hybrid HF-DFT SCF calculation will be
 performed using Relaxed Constraint Minimization + Pulay DIIS
 Exchange:     0.2220 Hartree-Fock + 1.0000 wB97X-D + LR-HF
 Correlation:  1.0000 wB97X-D
 Using Euler-Maclaurin-Lebedev (75,302) quadrature formula
 Dispersion:   Grimme D
 SCF converges when DIIS error is below 1.0E-04
 using 3 threads for integral computing
 -------------------------------------------------------
 OpenMP Integral computing Module                
 Release: version 1.0, May 2013, Q-Chem Inc. Pittsburgh 
 -------------------------------------------------------
 using 3 threads for integral computing
 -------------------------------------------------------
 OpenMP Integral computing Module                
 Release: version 1.0, May 2013, Q-Chem Inc. Pittsburgh 
 -------------------------------------------------------
 ---------------------------------------
  Cycle       Energy         DIIS Error
 ---------------------------------------
    1    -119.4131142192      9.40E-02
    2    -119.0661886903      8.22E-03
    3    -119.0842561673      2.48E-03
    4    -119.0952858676      1.69E-03
    5    -119.0960060824      3.00E-04 Done RCA. Switching to DIIS
    6    -119.0965057960      2.16E-04
    7    -119.0965261253      5.42E-06 Convergence criterion met
 ---------------------------------------
 SCF time:  CPU 32.43 s  wall 11.20 s
 SCF   energy in the small basis set = -119.09652613
 Total energy in the small basis set = -119.09652613
 ----------------------------------------------------
  Cycle       Energy    
 ----------------------------------------------------
    1     -16.4770218402     -1.65E+01
 Long-range K will be added via erf
 Coulomb attenuation parameter = 0.2 bohr**(-1)
 A restricted hybrid HF-DFT SCF calculation will be
 performed using Relaxed Constraint Minimization + Pulay DIIS
 Exchange:     0.2220 Hartree-Fock + 1.0000 wB97X-D + LR-HF
 Correlation:  1.0000 wB97X-D
 Using Euler-Maclaurin-Lebedev (75,302) quadrature formula
 Dispersion:   Grimme D
 SCF converges when DIIS error is below 1.0E-05
 Basis2 calculation detected. Using small basis as guess for larger.
 SCFMinFind is unable to tell whether the solution found is close.
 Resetting ReadMinima to 0 and attempting to follow guess.
 SCFMinFind following SCF Guess.
 using 3 threads for integral computing
 -------------------------------------------------------
 OpenMP Integral computing Module                
 Release: version 1.0, May 2013, Q-Chem Inc. Pittsburgh 
 -------------------------------------------------------
 using 3 threads for integral computing
 -------------------------------------------------------
 OpenMP Integral computing Module                
 Release: version 1.0, May 2013, Q-Chem Inc. Pittsburgh 
 -------------------------------------------------------
 ---------------------------------------
  Cycle       Energy         DIIS Error
 ---------------------------------------
    1    -119.1150774458      4.21E-03
    2    -119.1371640886      5.90E-04 Done RCA. Switching to DIIS
    3    -119.1380220388      4.02E-04
    4    -119.1389184198      4.38E-05
    5    -119.1389323528      9.82E-06 Convergence criterion met
 ---------------------------------------
 SCF time:  CPU 82.97 s  wall 28.08 s
 SCF   energy in the final basis set = -119.13893235
 Total energy in the final basis set = -119.13893235
 
 --------------------------------------------------------------
 
                    Orbital Energies (a.u.)
 --------------------------------------------------------------
 
 Alpha MOs
 -- Occupied --
-10.2873 -10.2719 -10.2719  -0.8616  -0.7723  -0.6850  -0.5348  -0.5172
 -0.4715  -0.4621  -0.4195  -0.4156  -0.4149
 -- Virtual --
  0.0697   0.0842   0.0903   0.1012   0.1243   0.1300   0.1334   0.1429
  0.1442   0.1700   0.1708   0.1916   0.2271   0.2416   0.2456   0.2644
  0.2788   0.2834   0.2855   0.2952   0.3314   0.3384   0.4536   0.4623
  0.4714   0.5095   0.5172   0.5253   0.5591   0.5642   0.5877   0.5882
  0.5943   0.6046   0.6343   0.6344   0.6369   0.6494   0.7075   0.7181
  0.7253   0.7600   0.8169   0.8290   0.8616   0.8804   0.8862   0.9525
  1.0037   1.0412   1.0463   1.0991   1.1307   1.1691   1.1836   1.2174
  1.2182   1.2201   1.2419   1.2662   1.2767   1.2910   1.3086   1.3323
  1.3414   1.3888   1.4047   1.4345   1.4494   1.4681   1.4752   1.4759
  1.5158   1.5514   1.6026   1.6301   1.6342   1.6531   1.6796   1.6870
  1.7643   2.3688   2.4131   2.4705   2.4786   2.5153   2.5501   2.5653
  2.5836   2.6900   2.7628   2.7937   2.8242   2.8882   2.8923   2.9161
  2.9319   2.9320   3.0124   3.0211   3.0601   3.0682   3.0870   3.0927
  3.1059   3.1387   3.1719   3.1808   3.1859   3.2238   3.2861   3.2958
  3.3271   3.3401   3.3442   3.3481   3.3515   3.3664   3.3732   3.3892
  3.4142   3.4426   3.4623   3.4967   3.5584   3.5729   3.5832   3.6133
  3.6164   3.6538   3.6690   3.7063   3.7428   3.7573   3.7911   3.8388
  3.8704   3.9154   3.9214   3.9268   3.9311   3.9843   4.0059   4.0399
  4.0489   4.0753   4.1134   4.1216   4.1372   4.1570   4.1693   4.1917
  4.2109   4.2307   4.2347   4.3218   4.3260   4.3362   4.3790   4.3995
  4.4821   4.5204   4.5227   4.5385   4.6109   4.7671   4.8178   4.8855
  4.9041   4.9232   4.9398   4.9504   5.0374   5.0409   5.0445   5.0605
  5.0924   5.1892   5.2334   5.2396   5.2568   5.2960   5.3017   5.3293
  5.3306   5.3490   5.3988   5.4379   5.4616   5.5170   5.5534   5.6052
  5.7991   6.3682   6.3835   6.3875   6.4093   6.4439  25.0983  25.3817
 25.4042
 --------------------------------------------------------------
 
 -----------------------------------------------------------------
                    Cartesian Multipole Moments
 -----------------------------------------------------------------
    Charge (ESU x 10^10)
                 0.0000
    Dipole Moment (Debye)
         X       0.0000      Y      -0.0053      Z      -0.0284
       Tot       0.0288
    Quadrupole Moments (Debye-Ang)
        XX     -21.7702     XY      -0.0000     YY     -21.5271
        XZ      -0.0000     YZ       0.0154     ZZ     -21.9087
    Octopole Moments (Debye-Ang^2)
       XXX      -0.0000    XXY      -0.0437    XYY       0.0000
       YYY      -0.0882    XXZ      -1.0083    XYZ       0.0000
       YYZ       0.7397    XZZ       0.0000    YZZ      -0.0014
       ZZZ       0.4611
    Hexadecapole Moments (Debye-Ang^3)
      XXXX    -208.8760   XXXY      -0.0000   XXYY     -44.6767
      XYYY       0.0000   YYYY     -44.1989   XXXZ      -0.0000
      XXYZ       0.0430   XYYZ      -0.0000   YYYZ      -0.0028
      XXZZ     -48.8663   XYZZ       0.0000   YYZZ     -17.4803
      XZZZ      -0.0000   YZZZ       0.0066   ZZZZ     -75.9951
 -----------------------------------------------------------------
Archival summary:
1\1\cn0821\SP\ProcedureUnspecified\BasisUnspecified\38\r0852400\SunApr1205:50:582020SunApr1205:50:582020\0\\#,ProcedureUnspecified,BasisUnspecified,\\0,1\C\H,1,1.09248\H,1,1.09252,2,106.404\C,1,1.60348,2,109.871,3,119.049,0\H,4,1.09105,1,116.002,2,-58.3069,0\H,4,1.09228,1,109.461,2,179.4,0\H,4,1.09255,1,109,2,63.1877,0\C,1,1.60348,2,109.871,3,-119.049,0\H,8,1.09105,1,116.001,2,58.3069,0\H,8,1.09228,1,109.461,2,-179.4,0\H,8,1.09255,1,109,2,-63.1877,0\\\@

 Total job time:  43.62s(wall), 120.63s(cpu) 
 Sun Apr 12 05:50:58 2020

        *************************************************************
        *                                                           *
        *  Thank you very much for using Q-Chem.  Have a nice day.  *
        *                                                           *
        *************************************************************


