                  Welcome to Q-Chem
     A Quantum Leap Into The Future Of Chemistry


 Q-Chem 5.2 (devel), Q-Chem, Inc., Pleasanton, CA (2019)

 Yihan Shao,  Zhengting Gan,  E. Epifanovsky,  A. T. B. Gilbert,  M. Wormit,  
 J. Kussmann,  A. W. Lange,  A. Behn,  Jia Deng,  Xintian Feng,  D. Ghosh,  
 M. Goldey,  P. R. Horn,  L. D. Jacobson,  I. Kaliman,  T. Kus,  A. Landau,  
 Jie Liu,  E. I. Proynov,  R. M. Richard,  R. P. Steele,  E. J. Sundstrom,  
 H. L. Woodcock III,  P. M. Zimmerman,  D. Zuev,  B. Alam,  B. Albrecht,  
 E. Alguire,  S. A. Baeppler,  D. Barton,  Z. Benda,  Y. A. Bernard,  
 E. J. Berquist,  K. B. Bravaya,  H. Burton,  K. Carter-Fenk,  D. Casanova,  
 Chun-Min Chang,  Yunqing Chen,  A. Chien,  K. D. Closser,  M. P. Coons,  
 S. Coriani,  S. Dasgupta,  A. L. Dempwolff,  M. Diedenhofen,  Hainam Do,  
 R. G. Edgar,  Po-Tung Fang,  S. Faraji,  S. Fatehi,  Qingguo Feng,  
 J. Fosso-Tande,  J. Gayvert,  Qinghui Ge,  A. Ghysels,  G. Gidofalvi,  
 J. Gomes,  J. Gonthier,  A. Gunina,  D. Hait,  M. W. D. Hanson-Heine,  
 P. H. P. Harbach,  A. W. Hauser,  M. F. Herbst,  J. E. Herr,  
 E. G. Hohenstein,  Z. C. Holden,  Kerwin Hui,  B. C. Huynh,  T.-C. Jagau,  
 Hyunjun Ji,  B. Kaduk,  K. Khistyaev,  Jaehoon Kim,  P. Klunzinger,  K. Koh,  
 D. Kosenkov,  L. Koulias,  T. Kowalczyk,  C. M. Krauter,  A. Kunitsa,  
 Ka Un Lao,  A. Laurent,  K. V. Lawler,  Joonho Lee,  D. Lefrancois,  
 S. Lehtola,  D. S. Levine,  Yi-Pei Li,  You-Sheng Lin,  Fenglai Liu,  
 Kuan-Yu Liu,  E. Livshits,  M. Loipersberger,  A. Luenser,  P. Manohar,  
 E. Mansoor,  S. F. Manzer,  Shan-Ping Mao,  Yuezhi Mao,  N. Mardirossian,  
 A. V. Marenich,  T. Markovich,  L. A. Martinez-Martinez,  S. A. Maurer,  
 N. J. Mayhall,  S. C. McKenzie,  J.-M. Mewes,  P. Morgante,  A. F. Morrison,  
 J. W. Mullinax,  K. Nanda,  T. S. Nguyen-Beck,  R. Olivares-Amaya,  
 J. A. Parkhill,  S. K. Paul,  Zheng Pei,  T. M. Perrine,  F. Plasser,  
 P. Pokhilko,  S. Prager,  A. Prociuk,  E. Ramos,  B. Rana,  D. R. Rehn,  
 F. Rob,  M. Scheurer,  M. Schneider,  N. Sergueev,  S. M. Sharada,  
 S. Sharma,  D. W. Small,  T. Stauch,  C. J. Stein,  T. Stein,  Yu-Chuan Su,  
 S. P. Veccham,  A. J. W. Thom,  A. Tkatchenko,  T. Tsuchimochi,  
 N. M. Tubman,  L. Vogt,  M. L. Vidal,  O. Vydrov,  M. A. Watson,  J. Wenzel,  
 M. de Wergifosse,  T. A. Wesolowski,  A. White,  J. Witte,  A. Yamada,  
 Jun Yang,  K. Yao,  S. Yeganeh,  S. R. Yost,  Zhi-Qiang You,  A. Zech,  
 Igor Ying Zhang,  Xing Zhang,  Yan Zhao,  Ying Zhu,  B. R. Brooks,  
 G. K. L. Chan,  C. J. Cramer,  M. S. Gordon,  W. J. Hehre,  A. Klamt,  
 M. W. Schmidt,  C. D. Sherrill,  D. G. Truhlar,  A. Aspuru-Guzik,  R. Baer,  
 A. T. Bell,  N. A. Besley,  Jeng-Da Chai,  A. E. DePrince, III,  
 R. A. DiStasio Jr.,  A. Dreuw,  B. D. Dunietz,  T. R. Furlani,  
 Chao-Ping Hsu,  Yousung Jung,  Jing Kong,  D. S. Lambrecht,  WanZhen Liang,  
 C. Ochsenfeld,  V. A. Rassolov,  L. V. Slipchenko,  J. E. Subotnik,  
 T. Van Voorhis,  J. M. Herbert,  A. I. Krylov,  P. M. W. Gill,  M. Head-Gordon

 Contributors to earlier versions of Q-Chem not listed above: 
 R. D. Adamson,  B. Austin,  J. Baker,  G. J. O. Beran,  K. Brandhorst,  
 S. T. Brown,  E. F. C. Byrd,  A. K. Chakraborty,  C.-L. Cheng,  
 Siu Hung Chien,  D. M. Chipman,  D. L. Crittenden,  H. Dachsel,  
 R. J. Doerksen,  A. D. Dutoi,  L. Fusti-Molnar,  W. A. Goddard III,  
 A. Golubeva-Zadorozhnaya,  S. R. Gwaltney,  G. Hawkins,  A. Heyden,  
 S. Hirata,  G. Kedziora,  F. J. Keil,  C. Kelley,  Jihan Kim,  R. A. King,  
 R. Z. Khaliullin,  P. P. Korambath,  W. Kurlancheek,  A. M. Lee,  M. S. Lee,  
 S. V. Levchenko,  Ching Yeh Lin,  D. Liotard,  R. C. Lochan,  I. Lotan,  
 P. E. Maslen,  N. Nair,  D. P. O'Neill,  D. Neuhauser,  E. Neuscamman,  
 C. M. Oana,  R. Olson,  B. Peters,  R. Peverati,  P. A. Pieniazek,  
 Y. M. Rhee,  J. Ritchie,  M. A. Rohrdanz,  E. Rosta,  N. J. Russ,  
 H. F. Schaefer III,  N. E. Schultz,  N. Shenvi,  A. C. Simmonett,  A. Sodt,  
 D. Stuck,  K. S. Thanthiriwatte,  V. Vanovschi,  Tao Wang,  A. Warshel,  
 C. F. Williams,  Q. Wu,  X. Xu,  W. Zhang

 Please cite Q-Chem as follows:
 Y. Shao et al., Mol. Phys. 113, 184-215 (2015)
 DOI: 10.1080/00268976.2014.952696

 Q-Chem 5.2.2 for Intel X86 EM64T Linux

 Parts of Q-Chem use Armadillo 9.800.1 (Horizon Scraper).
 http://arma.sourceforge.net/

 Q-Chem begins on Sun Apr 12 08:31:15 2020  

Host: cn0821
0

     Scratch files written to /tmp/ypli/6721342.srvc1/qchem196902//
Warning:  Did not find "$end" marker in "$molecule" section

Checking the input file for inconsistencies... 	...done.

--------------------------------------------------------------
User input:
--------------------------------------------------------------
$rem
   JOBTYPE  sp
   EXCHANGE   omegaB97X-D
   BASIS   6-311+G(2df,2pd)
   max_scf_cycles   250
   geom_opt_max_cycles   1500
   basis2 6-31G*
   scf_algorithm rca_diis
   SYM_IGNORE  TRUE
   print_input   true
   geom_opt_dmax   80
   pop_mulliken false
   XC_GRID 000075000302
$end

$molecule
0 1
C       1.2667733304     -0.0642961808     0.2615907189
C       0.0000014527     -0.0606021162     -0.5855255545
H       1.3006174540     -0.8213801416     0.8246638611
H       1.3092757429     0.9364067085     0.9810581404
H       2.1701163310     -0.0504097084     -0.3623165518
C       -1.2667635818     -0.0642978686     0.2616006412
H       0.0000004265     -0.8453480958     -1.1825143450
H       -0.0000006489     0.9053060201     -1.3008923517
H       -1.3006057511     -0.8213608916     0.8246561385
H       -2.1701489746     -0.0504105256     -0.3623318134
H       -1.3092658419     0.9363934660     0.9810561352
--------------------------------------------------------------
 ----------------------------------------------------------------
             Standard Nuclear Orientation (Angstroms)
    I     Atom           X                Y                Z
 ----------------------------------------------------------------
    1      C       1.2667733304    -0.0642961808     0.2615907189
    2      C       0.0000014527    -0.0606021162    -0.5855255545
    3      H       1.3006174540    -0.8213801416     0.8246638611
    4      H       1.3092757429     0.9364067085     0.9810581404
    5      H       2.1701163310    -0.0504097084    -0.3623165518
    6      C      -1.2667635818    -0.0642978686     0.2616006412
    7      H       0.0000004265    -0.8453480958    -1.1825143450
    8      H      -0.0000006489     0.9053060201    -1.3008923517
    9      H      -1.3006057511    -0.8213608916     0.8246561385
   10      H      -2.1701489746    -0.0504105256    -0.3623318134
   11      H      -1.3092658419     0.9363934660     0.9810561352
 ----------------------------------------------------------------
 Nuclear Repulsion Energy =          82.99448673 hartrees
 There are       13 alpha and       13 beta electrons
 Requested basis set is 6-311+G(2df,2pd)
 There are 72 shells and 214 basis functions

 Total QAlloc Memory Limit   2000 MB
 Mega-Array Size       188 MB
 MEM_STATIC part       192 MB

                       Distance Matrix (Angstroms)
             C (  1)   C (  2)   H (  3)   H (  4)   H (  5)   C (  6)
   C (  2)  1.523919
   H (  3)  0.944125  2.063739
   H (  4)  1.233226  2.272094  1.764752
   H (  5)  1.097944  2.181588  1.661128  1.876035
   C (  6)  2.533537  1.523919  2.735262  2.855697  3.493080
   H (  7)  2.073691  0.986013  2.391849  3.093525  2.452357  2.073692
   H (  8)  2.232980  1.201968  3.031673  2.631059  2.550240  2.232981
   H (  9)  2.735256  2.063721  2.601223  3.150506  3.748224  0.944098
   H ( 10)  3.493123  2.181621  3.748276  3.858096  4.340265  1.097994
   H ( 11)  2.855694  2.272083  3.150511  2.618542  3.858048  1.233210
             H (  7)   H (  8)   H (  9)   H ( 10)
   H (  8)  1.754652
   H (  9)  2.391837  3.031651
   H ( 10)  2.452381  2.550262  1.661147
   H ( 11)  3.093512  2.631051  1.764720  1.876058
 
 A cutoff of  1.0D-09 yielded   2532 shell pairs
 There are     22578 function pairs (     27759 Cartesian)
 Smallest overlap matrix eigenvalue = 8.65E-05

 Scale SEOQF with 1.000000e-01/1.000000e-01/1.000000e-01

 Standard Electronic Orientation quadrupole field applied
 Nucleus-field energy     =     0.0000000006 hartrees
 Requested basis set is 6-31G(d)
 There are 28 shells and 58 basis functions
 A cutoff of  1.0D-09 yielded    402 shell pairs
 There are      1773 function pairs (      1968 Cartesian)
 Smallest overlap matrix eigenvalue = 6.69E-03
 Guess from superposition of atomic densities
 Warning:  Energy on first SCF cycle will be non-variational
 SAD guess density has 26.000000 electrons
 Long-range K will be added via erf
 Coulomb attenuation parameter = 0.2 bohr**(-1)
 A restricted hybrid HF-DFT SCF calculation will be
 performed using Relaxed Constraint Minimization + Pulay DIIS
 Exchange:     0.2220 Hartree-Fock + 1.0000 wB97X-D + LR-HF
 Correlation:  1.0000 wB97X-D
 Using Euler-Maclaurin-Lebedev (75,302) quadrature formula
 Dispersion:   Grimme D
 SCF converges when DIIS error is below 1.0E-04
 using 3 threads for integral computing
 -------------------------------------------------------
 OpenMP Integral computing Module                
 Release: version 1.0, May 2013, Q-Chem Inc. Pittsburgh 
 -------------------------------------------------------
 using 3 threads for integral computing
 -------------------------------------------------------
 OpenMP Integral computing Module                
 Release: version 1.0, May 2013, Q-Chem Inc. Pittsburgh 
 -------------------------------------------------------
 ---------------------------------------
  Cycle       Energy         DIIS Error
 ---------------------------------------
    1    -119.6064615867      1.03E-01
    2    -118.9908160226      9.55E-03
    3    -119.0146988053      2.49E-03
    4    -119.0311520304      1.68E-03
    5    -119.0318526733      2.56E-04 Done RCA. Switching to DIIS
    6    -119.0323809073      1.88E-04
    7    -119.0323964892      4.96E-06 Convergence criterion met
 ---------------------------------------
 SCF time:  CPU 33.12 s  wall 11.45 s
 SCF   energy in the small basis set = -119.03239649
 Total energy in the small basis set = -119.03239649
 ----------------------------------------------------
  Cycle       Energy    
 ----------------------------------------------------
    1     -16.5645277010     -1.66E+01
 Long-range K will be added via erf
 Coulomb attenuation parameter = 0.2 bohr**(-1)
 A restricted hybrid HF-DFT SCF calculation will be
 performed using Relaxed Constraint Minimization + Pulay DIIS
 Exchange:     0.2220 Hartree-Fock + 1.0000 wB97X-D + LR-HF
 Correlation:  1.0000 wB97X-D
 Using Euler-Maclaurin-Lebedev (75,302) quadrature formula
 Dispersion:   Grimme D
 SCF converges when DIIS error is below 1.0E-05
 Basis2 calculation detected. Using small basis as guess for larger.
 SCFMinFind is unable to tell whether the solution found is close.
 Resetting ReadMinima to 0 and attempting to follow guess.
 SCFMinFind following SCF Guess.
 using 3 threads for integral computing
 -------------------------------------------------------
 OpenMP Integral computing Module                
 Release: version 1.0, May 2013, Q-Chem Inc. Pittsburgh 
 -------------------------------------------------------
 using 3 threads for integral computing
 -------------------------------------------------------
 OpenMP Integral computing Module                
 Release: version 1.0, May 2013, Q-Chem Inc. Pittsburgh 
 -------------------------------------------------------
 ---------------------------------------
  Cycle       Energy         DIIS Error
 ---------------------------------------
    1    -119.0545422183      4.21E-03
    2    -119.0764734941      5.79E-04 Done RCA. Switching to DIIS
    3    -119.0772462763      4.08E-04
    4    -119.0781665794      4.67E-05
    5    -119.0781821160      9.83E-06 Convergence criterion met
 ---------------------------------------
 SCF time:  CPU 84.52 s  wall 28.58 s
 SCF   energy in the final basis set = -119.07818212
 Total energy in the final basis set = -119.07818212
 
 --------------------------------------------------------------
 
                    Orbital Energies (a.u.)
 --------------------------------------------------------------
 
 Alpha MOs
 -- Occupied --
-10.2748 -10.2640 -10.2640  -0.8868  -0.7847  -0.6873  -0.5488  -0.5251
 -0.5025  -0.4471  -0.4184  -0.4172  -0.4049
 -- Virtual --
  0.0673   0.0854   0.0906   0.0984   0.1245   0.1288   0.1341   0.1402
  0.1424   0.1698   0.1698   0.1882   0.2212   0.2342   0.2347   0.2636
  0.2824   0.2881   0.3124   0.3165   0.3348   0.3551   0.4521   0.4711
  0.4717   0.5090   0.5149   0.5185   0.5462   0.5592   0.5764   0.5814
  0.6200   0.6258   0.6345   0.6411   0.6577   0.6596   0.7321   0.7353
  0.7494   0.7660   0.8238   0.8564   0.8722   0.8790   0.8912   0.9554
  0.9955   1.0500   1.0587   1.1293   1.1421   1.1795   1.1827   1.2162
  1.2195   1.2440   1.2498   1.2746   1.2912   1.2942   1.3266   1.3662
  1.3892   1.3911   1.3927   1.4264   1.4473   1.4524   1.4735   1.4877
  1.5394   1.5874   1.5905   1.6140   1.6382   1.6767   1.7213   1.7439
  1.7736   2.3384   2.4048   2.4654   2.5071   2.5587   2.5835   2.5858
  2.6869   2.7254   2.8107   2.8236   2.8327   2.8924   2.9065   2.9140
  2.9261   2.9370   2.9927   3.0167   3.0345   3.0595   3.0928   3.1039
  3.1070   3.1509   3.1683   3.1800   3.2307   3.2571   3.2585   3.2748
  3.3116   3.3170   3.3410   3.3439   3.3467   3.3868   3.3956   3.4244
  3.4444   3.4914   3.4943   3.5250   3.5389   3.5554   3.5945   3.5978
  3.6171   3.6574   3.6824   3.7187   3.7491   3.7707   3.8605   3.8707
  3.8776   3.9348   3.9351   3.9532   3.9646   4.0204   4.0216   4.0640
  4.0894   4.0901   4.1298   4.1404   4.1483   4.1601   4.2050   4.2256
  4.2329   4.2697   4.2841   4.3361   4.3585   4.3809   4.4110   4.4359
  4.4479   4.5404   4.5877   4.5916   4.6246   4.7197   4.8099   4.8187
  4.8395   4.8437   4.9521   4.9551   4.9970   5.0167   5.0337   5.1327
  5.1859   5.2234   5.2587   5.2745   5.3360   5.4362   5.4894   5.5012
  5.5795   5.5846   5.6470   5.6721   5.6905   5.7514   5.7980   5.8290
  5.9161   6.2072   6.2113   6.5003   6.6033   6.6289  25.1447  25.3642
 25.3725
 --------------------------------------------------------------
 
 -----------------------------------------------------------------
                    Cartesian Multipole Moments
 -----------------------------------------------------------------
    Charge (ESU x 10^10)
                -0.0000
    Dipole Moment (Debye)
         X       0.0000      Y      -0.4442      Z      -0.1127
       Tot       0.4583
    Quadrupole Moments (Debye-Ang)
        XX     -22.1614     XY      -0.0000     YY     -21.3153
        XZ      -0.0000     YZ       0.0098     ZZ     -21.9178
    Octopole Moments (Debye-Ang^2)
       XXX       0.0002    XXY      -0.5044    XYY       0.0000
       YYY       0.5715    XXZ      -1.7080    XYZ      -0.0000
       YYZ       0.4488    XZZ      -0.0000    YZZ       0.1441
       ZZZ      -0.5465
    Hexadecapole Moments (Debye-Ang^3)
      XXXX    -202.4976   XXXY      -0.0001   XXYY     -42.3707
      XYYY      -0.0001   YYYY     -44.5743   XXXZ      -0.0002
      XXYZ      -0.7273   XYYZ      -0.0001   YYYZ      -1.1922
      XXZZ     -45.6088   XYZZ      -0.0000   YYZZ     -17.2206
      XZZZ      -0.0003   YZZZ      -1.3042   ZZZZ     -73.1353
 -----------------------------------------------------------------
Archival summary:
1\1\cn0821\SP\ProcedureUnspecified\BasisUnspecified\38\r0852400\SunApr1208:31:592020SunApr1208:31:592020\0\\#,ProcedureUnspecified,BasisUnspecified,\\0,1\C\H,1,0.986013\H,1,1.20197,2,106.214\C,1,1.52392,2,109.55,3,118.102,0\H,4,0.944098,1,111.301,2,62.9936,0\H,4,1.09799,1,111.593,2,-58.5527,0\H,4,1.23321,1,110.548,2,-177.549,0\C,1,1.52392,2,109.55,3,-118.102,0\H,8,0.944125,1,111.301,2,-62.9939,0\H,8,1.09794,1,111.593,2,58.5526,0\H,8,1.23323,1,110.547,2,177.55,0\\\@

 Total job time:  44.30s(wall), 122.85s(cpu) 
 Sun Apr 12 08:31:59 2020

        *************************************************************
        *                                                           *
        *  Thank you very much for using Q-Chem.  Have a nice day.  *
        *                                                           *
        *************************************************************


