                  Welcome to Q-Chem
     A Quantum Leap Into The Future Of Chemistry


 Q-Chem 5.2 (devel), Q-Chem, Inc., Pleasanton, CA (2019)

 Yihan Shao,  Zhengting Gan,  E. Epifanovsky,  A. T. B. Gilbert,  M. Wormit,  
 J. Kussmann,  A. W. Lange,  A. Behn,  Jia Deng,  Xintian Feng,  D. Ghosh,  
 M. Goldey,  P. R. Horn,  L. D. Jacobson,  I. Kaliman,  T. Kus,  A. Landau,  
 Jie Liu,  E. I. Proynov,  R. M. Richard,  R. P. Steele,  E. J. Sundstrom,  
 H. L. Woodcock III,  P. M. Zimmerman,  D. Zuev,  B. Alam,  B. Albrecht,  
 E. Alguire,  S. A. Baeppler,  D. Barton,  Z. Benda,  Y. A. Bernard,  
 E. J. Berquist,  K. B. Bravaya,  H. Burton,  K. Carter-Fenk,  D. Casanova,  
 Chun-Min Chang,  Yunqing Chen,  A. Chien,  K. D. Closser,  M. P. Coons,  
 S. Coriani,  S. Dasgupta,  A. L. Dempwolff,  M. Diedenhofen,  Hainam Do,  
 R. G. Edgar,  Po-Tung Fang,  S. Faraji,  S. Fatehi,  Qingguo Feng,  
 J. Fosso-Tande,  J. Gayvert,  Qinghui Ge,  A. Ghysels,  G. Gidofalvi,  
 J. Gomes,  J. Gonthier,  A. Gunina,  D. Hait,  M. W. D. Hanson-Heine,  
 P. H. P. Harbach,  A. W. Hauser,  M. F. Herbst,  J. E. Herr,  
 E. G. Hohenstein,  Z. C. Holden,  Kerwin Hui,  B. C. Huynh,  T.-C. Jagau,  
 Hyunjun Ji,  B. Kaduk,  K. Khistyaev,  Jaehoon Kim,  P. Klunzinger,  K. Koh,  
 D. Kosenkov,  L. Koulias,  T. Kowalczyk,  C. M. Krauter,  A. Kunitsa,  
 Ka Un Lao,  A. Laurent,  K. V. Lawler,  Joonho Lee,  D. Lefrancois,  
 S. Lehtola,  D. S. Levine,  Yi-Pei Li,  You-Sheng Lin,  Fenglai Liu,  
 Kuan-Yu Liu,  E. Livshits,  M. Loipersberger,  A. Luenser,  P. Manohar,  
 E. Mansoor,  S. F. Manzer,  Shan-Ping Mao,  Yuezhi Mao,  N. Mardirossian,  
 A. V. Marenich,  T. Markovich,  L. A. Martinez-Martinez,  S. A. Maurer,  
 N. J. Mayhall,  S. C. McKenzie,  J.-M. Mewes,  P. Morgante,  A. F. Morrison,  
 J. W. Mullinax,  K. Nanda,  T. S. Nguyen-Beck,  R. Olivares-Amaya,  
 J. A. Parkhill,  S. K. Paul,  Zheng Pei,  T. M. Perrine,  F. Plasser,  
 P. Pokhilko,  S. Prager,  A. Prociuk,  E. Ramos,  B. Rana,  D. R. Rehn,  
 F. Rob,  M. Scheurer,  M. Schneider,  N. Sergueev,  S. M. Sharada,  
 S. Sharma,  D. W. Small,  T. Stauch,  C. J. Stein,  T. Stein,  Yu-Chuan Su,  
 S. P. Veccham,  A. J. W. Thom,  A. Tkatchenko,  T. Tsuchimochi,  
 N. M. Tubman,  L. Vogt,  M. L. Vidal,  O. Vydrov,  M. A. Watson,  J. Wenzel,  
 M. de Wergifosse,  T. A. Wesolowski,  A. White,  J. Witte,  A. Yamada,  
 Jun Yang,  K. Yao,  S. Yeganeh,  S. R. Yost,  Zhi-Qiang You,  A. Zech,  
 Igor Ying Zhang,  Xing Zhang,  Yan Zhao,  Ying Zhu,  B. R. Brooks,  
 G. K. L. Chan,  C. J. Cramer,  M. S. Gordon,  W. J. Hehre,  A. Klamt,  
 M. W. Schmidt,  C. D. Sherrill,  D. G. Truhlar,  A. Aspuru-Guzik,  R. Baer,  
 A. T. Bell,  N. A. Besley,  Jeng-Da Chai,  A. E. DePrince, III,  
 R. A. DiStasio Jr.,  A. Dreuw,  B. D. Dunietz,  T. R. Furlani,  
 Chao-Ping Hsu,  Yousung Jung,  Jing Kong,  D. S. Lambrecht,  WanZhen Liang,  
 C. Ochsenfeld,  V. A. Rassolov,  L. V. Slipchenko,  J. E. Subotnik,  
 T. Van Voorhis,  J. M. Herbert,  A. I. Krylov,  P. M. W. Gill,  M. Head-Gordon

 Contributors to earlier versions of Q-Chem not listed above: 
 R. D. Adamson,  B. Austin,  J. Baker,  G. J. O. Beran,  K. Brandhorst,  
 S. T. Brown,  E. F. C. Byrd,  A. K. Chakraborty,  C.-L. Cheng,  
 Siu Hung Chien,  D. M. Chipman,  D. L. Crittenden,  H. Dachsel,  
 R. J. Doerksen,  A. D. Dutoi,  L. Fusti-Molnar,  W. A. Goddard III,  
 A. Golubeva-Zadorozhnaya,  S. R. Gwaltney,  G. Hawkins,  A. Heyden,  
 S. Hirata,  G. Kedziora,  F. J. Keil,  C. Kelley,  Jihan Kim,  R. A. King,  
 R. Z. Khaliullin,  P. P. Korambath,  W. Kurlancheek,  A. M. Lee,  M. S. Lee,  
 S. V. Levchenko,  Ching Yeh Lin,  D. Liotard,  R. C. Lochan,  I. Lotan,  
 P. E. Maslen,  N. Nair,  D. P. O'Neill,  D. Neuhauser,  E. Neuscamman,  
 C. M. Oana,  R. Olson,  B. Peters,  R. Peverati,  P. A. Pieniazek,  
 Y. M. Rhee,  J. Ritchie,  M. A. Rohrdanz,  E. Rosta,  N. J. Russ,  
 H. F. Schaefer III,  N. E. Schultz,  N. Shenvi,  A. C. Simmonett,  A. Sodt,  
 D. Stuck,  K. S. Thanthiriwatte,  V. Vanovschi,  Tao Wang,  A. Warshel,  
 C. F. Williams,  Q. Wu,  X. Xu,  W. Zhang

 Please cite Q-Chem as follows:
 Y. Shao et al., Mol. Phys. 113, 184-215 (2015)
 DOI: 10.1080/00268976.2014.952696

 Q-Chem 5.2.2 for Intel X86 EM64T Linux

 Parts of Q-Chem use Armadillo 9.800.1 (Horizon Scraper).
 http://arma.sourceforge.net/

 Q-Chem begins on Sun Apr 12 05:42:06 2020  

Host: cn0821
0

     Scratch files written to /tmp/ypli/6721342.srvc1/qchem171227//
Warning:  Did not find "$end" marker in "$molecule" section

Checking the input file for inconsistencies... 	...done.

--------------------------------------------------------------
User input:
--------------------------------------------------------------
$rem
   JOBTYPE  sp
   EXCHANGE   omegaB97X-D
   BASIS   6-311+G(2df,2pd)
   max_scf_cycles   250
   geom_opt_max_cycles   1500
   basis2 6-31G*
   scf_algorithm rca_diis
   SYM_IGNORE  TRUE
   print_input   true
   geom_opt_dmax   80
   pop_mulliken false
   XC_GRID 000075000302
$end

$molecule
0 1
C       1.2522403559     -0.0951531170     0.2558140873
C       0.0000000274     -0.1709751404     -0.6143171395
H       1.4415424629     -0.8068177919     1.0583885950
H       1.0820183161     0.8815083851     0.7212097169
H       2.1488666899     0.0351463008     -0.3499889248
C       -1.2522401212     -0.0951532020     0.2558144499
H       0.0000000524     -0.7515100118     -1.5350282966
H       -0.0000003438     0.8931173379     -0.8804567269
H       -1.4415427151     -0.8068178550     1.0583887635
H       -2.1488661496     0.0351469869     -0.3499888730
H       -1.0820186356     0.8815087734     0.7212093671
--------------------------------------------------------------
 ----------------------------------------------------------------
             Standard Nuclear Orientation (Angstroms)
    I     Atom           X                Y                Z
 ----------------------------------------------------------------
    1      C       1.2522403559    -0.0951531170     0.2558140873
    2      C       0.0000000274    -0.1709751404    -0.6143171395
    3      H       1.4415424629    -0.8068177919     1.0583885950
    4      H       1.0820183161     0.8815083851     0.7212097169
    5      H       2.1488666899     0.0351463008    -0.3499889248
    6      C      -1.2522401212    -0.0951532020     0.2558144499
    7      H       0.0000000524    -0.7515100118    -1.5350282966
    8      H      -0.0000003438     0.8931173379    -0.8804567269
    9      H      -1.4415427151    -0.8068178550     1.0583887635
   10      H      -2.1488661496     0.0351469869    -0.3499888730
   11      H      -1.0820186356     0.8815087734     0.7212093671
 ----------------------------------------------------------------
 Nuclear Repulsion Energy =          83.22317338 hartrees
 There are       13 alpha and       13 beta electrons
 Requested basis set is 6-311+G(2df,2pd)
 There are 72 shells and 214 basis functions

 Total QAlloc Memory Limit   2000 MB
 Mega-Array Size       188 MB
 MEM_STATIC part       192 MB

                       Distance Matrix (Angstroms)
             C (  1)   C (  2)   H (  3)   H (  4)   H (  5)   C (  6)
   C (  2)  1.526756
   H (  3)  1.089233  2.297887
   H (  4)  1.095188  2.015469  1.758804
   H (  5)  1.089915  2.174852  1.786824  1.732617
   C (  6)  2.504480  1.526756  2.899492  2.572785  3.457095
   H (  7)  2.281672  1.088453  2.967645  2.987996  2.576970  2.281672
   H (  8)  1.958545  1.096870  2.954141  1.932934  2.373845  1.958544
   H (  9)  2.899493  2.297887  2.883085  3.054913  3.947591  1.089233
   H ( 10)  3.457094  2.174852  3.947590  3.507479  4.297733  1.089915
   H ( 11)  2.572786  2.015470  3.054914  2.164037  3.507480  1.095188
             H (  7)   H (  8)   H (  9)   H ( 10)
   H (  8)  1.770103
   H (  9)  2.967645  2.954140
   H ( 10)  2.576970  2.373844  1.786824
   H ( 11)  2.987997  1.932934  1.758805  1.732616
 
 A cutoff of  1.0D-09 yielded   2546 shell pairs
 There are     22608 function pairs (     27795 Cartesian)
 Smallest overlap matrix eigenvalue = 9.98E-05

 Scale SEOQF with 1.000000e-01/1.000000e-01/1.000000e-01

 Standard Electronic Orientation quadrupole field applied
 Nucleus-field energy     =     0.0000000005 hartrees
 Requested basis set is 6-31G(d)
 There are 28 shells and 58 basis functions
 A cutoff of  1.0D-09 yielded    402 shell pairs
 There are      1773 function pairs (      1968 Cartesian)
 Smallest overlap matrix eigenvalue = 6.03E-03
 Guess from superposition of atomic densities
 Warning:  Energy on first SCF cycle will be non-variational
 SAD guess density has 26.000000 electrons
 Long-range K will be added via erf
 Coulomb attenuation parameter = 0.2 bohr**(-1)
 A restricted hybrid HF-DFT SCF calculation will be
 performed using Relaxed Constraint Minimization + Pulay DIIS
 Exchange:     0.2220 Hartree-Fock + 1.0000 wB97X-D + LR-HF
 Correlation:  1.0000 wB97X-D
 Using Euler-Maclaurin-Lebedev (75,302) quadrature formula
 Dispersion:   Grimme D
 SCF converges when DIIS error is below 1.0E-04
 using 3 threads for integral computing
 -------------------------------------------------------
 OpenMP Integral computing Module                
 Release: version 1.0, May 2013, Q-Chem Inc. Pittsburgh 
 -------------------------------------------------------
 using 3 threads for integral computing
 -------------------------------------------------------
 OpenMP Integral computing Module                
 Release: version 1.0, May 2013, Q-Chem Inc. Pittsburgh 
 -------------------------------------------------------
 ---------------------------------------
  Cycle       Energy         DIIS Error
 ---------------------------------------
    1    -119.6681527700      1.02E-01
    2    -119.0356158966      8.97E-03
    3    -119.0566400800      2.53E-03
    4    -119.0704787258      1.74E-03
    5    -119.0712163666      2.73E-04 Done RCA. Switching to DIIS
    6    -119.0717609045      2.02E-04
    7    -119.0717785310      4.98E-06 Convergence criterion met
 ---------------------------------------
 SCF time:  CPU 32.76 s  wall 11.36 s
 SCF   energy in the small basis set = -119.07177853
 Total energy in the small basis set = -119.07177853
 ----------------------------------------------------
  Cycle       Energy    
 ----------------------------------------------------
    1     -16.5443239996     -1.65E+01
 Long-range K will be added via erf
 Coulomb attenuation parameter = 0.2 bohr**(-1)
 A restricted hybrid HF-DFT SCF calculation will be
 performed using Relaxed Constraint Minimization + Pulay DIIS
 Exchange:     0.2220 Hartree-Fock + 1.0000 wB97X-D + LR-HF
 Correlation:  1.0000 wB97X-D
 Using Euler-Maclaurin-Lebedev (75,302) quadrature formula
 Dispersion:   Grimme D
 SCF converges when DIIS error is below 1.0E-05
 Basis2 calculation detected. Using small basis as guess for larger.
 SCFMinFind is unable to tell whether the solution found is close.
 Resetting ReadMinima to 0 and attempting to follow guess.
 SCFMinFind following SCF Guess.
 using 3 threads for integral computing
 -------------------------------------------------------
 OpenMP Integral computing Module                
 Release: version 1.0, May 2013, Q-Chem Inc. Pittsburgh 
 -------------------------------------------------------
 using 3 threads for integral computing
 -------------------------------------------------------
 OpenMP Integral computing Module                
 Release: version 1.0, May 2013, Q-Chem Inc. Pittsburgh 
 -------------------------------------------------------
 ---------------------------------------
  Cycle       Energy         DIIS Error
 ---------------------------------------
    1    -119.0921158894      4.21E-03
    2    -119.1140621160      6.03E-04 Done RCA. Switching to DIIS
    3    -119.1149020124      4.24E-04
    4    -119.1158863562      4.63E-05
    5    -119.1159015209      1.06E-05
    6    -119.1159022784      3.83E-06 Convergence criterion met
 ---------------------------------------
 SCF time:  CPU 99.74 s  wall 33.74 s
 SCF   energy in the final basis set = -119.11590228
 Total energy in the final basis set = -119.11590228
 
 --------------------------------------------------------------
 
                    Orbital Energies (a.u.)
 --------------------------------------------------------------
 
 Alpha MOs
 -- Occupied --
-10.2771 -10.2674 -10.2673  -0.8912  -0.7775  -0.6763  -0.5582  -0.5216
 -0.4919  -0.4512  -0.4263  -0.4156  -0.3918
 -- Virtual --
  0.0684   0.0857   0.0883   0.0947   0.1256   0.1289   0.1325   0.1339
  0.1421   0.1718   0.1738   0.1927   0.2238   0.2426   0.2454   0.2645
  0.2792   0.2889   0.3092   0.3138   0.3308   0.3490   0.4600   0.4663
  0.4774   0.4856   0.5136   0.5138   0.5405   0.5654   0.5792   0.5909
  0.6133   0.6280   0.6324   0.6465   0.6503   0.6820   0.7053   0.7247
  0.7266   0.7804   0.8194   0.8406   0.8628   0.8967   0.9358   0.9909
  1.0201   1.0300   1.0828   1.1045   1.1230   1.1523   1.2017   1.2086
  1.2309   1.2443   1.2855   1.2949   1.3261   1.3336   1.3363   1.3716
  1.3787   1.4158   1.4295   1.4344   1.4345   1.4753   1.5037   1.5232
  1.5425   1.5659   1.5738   1.6015   1.6356   1.6425   1.6594   1.7030
  1.7270   2.3917   2.4199   2.4275   2.5515   2.5538   2.6110   2.6308
  2.6687   2.7023   2.7814   2.8333   2.8783   2.8819   2.8967   2.9131
  2.9788   2.9914   3.0017   3.0180   3.0483   3.0636   3.0680   3.1167
  3.1439   3.1642   3.1801   3.1929   3.2103   3.2491   3.2857   3.2877
  3.3022   3.3198   3.3565   3.3674   3.3985   3.4083   3.4369   3.4521
  3.4540   3.5065   3.5189   3.5320   3.5670   3.5784   3.5860   3.5983
  3.6133   3.6264   3.6474   3.7302   3.7489   3.8253   3.8478   3.8540
  3.8968   3.9153   3.9353   3.9704   3.9783   4.0267   4.0481   4.0857
  4.1114   4.1145   4.1208   4.1634   4.1915   4.2093   4.2159   4.2169
  4.2423   4.2754   4.3119   4.3266   4.3382   4.4072   4.4611   4.4687
  4.5811   4.6188   4.6194   4.6332   4.7208   4.8079   4.8369   4.8915
  4.9086   4.9418   4.9761   4.9790   4.9931   5.0654   5.1092   5.1357
  5.1541   5.2159   5.2437   5.2676   5.2764   5.3154   5.3724   5.3791
  5.4160   5.4258   5.4808   5.5460   5.6262   5.6311   5.7400   5.7479
  5.9743   6.3987   6.4028   6.4233   6.4546   6.5229  25.1495  25.4350
 25.4486
 --------------------------------------------------------------
 
 -----------------------------------------------------------------
                    Cartesian Multipole Moments
 -----------------------------------------------------------------
    Charge (ESU x 10^10)
                -0.0000
    Dipole Moment (Debye)
         X      -0.0000      Y       0.2385      Z      -0.1003
       Tot       0.2587
    Quadrupole Moments (Debye-Ang)
        XX     -22.2199     XY      -0.0000     YY     -21.6864
        XZ      -0.0000     YZ      -0.1213     ZZ     -21.7149
    Octopole Moments (Debye-Ang^2)
       XXX       0.0000    XXY       1.3311    XYY      -0.0000
       YYY       5.6136    XXZ      -1.1074    XYZ       0.0000
       YYZ       0.6031    XZZ      -0.0000    YZZ       0.0266
       ZZZ      -0.2225
    Hexadecapole Moments (Debye-Ang^3)
      XXXX    -197.3075   XXXY      -0.0000   XXYY     -42.0105
      XYYY       0.0000   YYYY     -44.2901   XXXZ      -0.0000
      XXYZ      -1.9202   XYYZ       0.0000   YYYZ      -0.8126
      XXZZ     -44.1427   XYZZ       0.0000   YYZZ     -18.0760
      XZZZ       0.0000   YZZZ      -0.1372   ZZZZ     -70.8267
 -----------------------------------------------------------------
Archival summary:
1\1\cn0821\SP\ProcedureUnspecified\BasisUnspecified\38\r0852400\SunApr1205:42:552020SunApr1205:42:552020\0\\#,ProcedureUnspecified,BasisUnspecified,\\0,1\C\H,1,1.08845\H,1,1.09687,2,108.19\C,1,1.52676,2,120.569,3,-107.713,0\H,4,1.08923,1,122.008,2,-90.4108,0\H,4,1.08991,1,111.34,2,42.4796,0\H,4,1.09519,1,99.1484,2,152.532,0\C,1,1.52676,2,120.569,3,107.713,0\H,8,1.08923,1,122.008,2,90.4107,0\H,8,1.08991,1,111.34,2,-42.4796,0\H,8,1.09519,1,99.1484,2,-152.532,0\\\@

 Total job time:  49.54s(wall), 137.84s(cpu) 
 Sun Apr 12 05:42:55 2020

        *************************************************************
        *                                                           *
        *  Thank you very much for using Q-Chem.  Have a nice day.  *
        *                                                           *
        *************************************************************


