                  Welcome to Q-Chem
     A Quantum Leap Into The Future Of Chemistry


 Q-Chem 5.2 (devel), Q-Chem, Inc., Pleasanton, CA (2019)

 Yihan Shao,  Zhengting Gan,  E. Epifanovsky,  A. T. B. Gilbert,  M. Wormit,  
 J. Kussmann,  A. W. Lange,  A. Behn,  Jia Deng,  Xintian Feng,  D. Ghosh,  
 M. Goldey,  P. R. Horn,  L. D. Jacobson,  I. Kaliman,  T. Kus,  A. Landau,  
 Jie Liu,  E. I. Proynov,  R. M. Richard,  R. P. Steele,  E. J. Sundstrom,  
 H. L. Woodcock III,  P. M. Zimmerman,  D. Zuev,  B. Alam,  B. Albrecht,  
 E. Alguire,  S. A. Baeppler,  D. Barton,  Z. Benda,  Y. A. Bernard,  
 E. J. Berquist,  K. B. Bravaya,  H. Burton,  K. Carter-Fenk,  D. Casanova,  
 Chun-Min Chang,  Yunqing Chen,  A. Chien,  K. D. Closser,  M. P. Coons,  
 S. Coriani,  S. Dasgupta,  A. L. Dempwolff,  M. Diedenhofen,  Hainam Do,  
 R. G. Edgar,  Po-Tung Fang,  S. Faraji,  S. Fatehi,  Qingguo Feng,  
 J. Fosso-Tande,  J. Gayvert,  Qinghui Ge,  A. Ghysels,  G. Gidofalvi,  
 J. Gomes,  J. Gonthier,  A. Gunina,  D. Hait,  M. W. D. Hanson-Heine,  
 P. H. P. Harbach,  A. W. Hauser,  M. F. Herbst,  J. E. Herr,  
 E. G. Hohenstein,  Z. C. Holden,  Kerwin Hui,  B. C. Huynh,  T.-C. Jagau,  
 Hyunjun Ji,  B. Kaduk,  K. Khistyaev,  Jaehoon Kim,  P. Klunzinger,  K. Koh,  
 D. Kosenkov,  L. Koulias,  T. Kowalczyk,  C. M. Krauter,  A. Kunitsa,  
 Ka Un Lao,  A. Laurent,  K. V. Lawler,  Joonho Lee,  D. Lefrancois,  
 S. Lehtola,  D. S. Levine,  Yi-Pei Li,  You-Sheng Lin,  Fenglai Liu,  
 Kuan-Yu Liu,  E. Livshits,  M. Loipersberger,  A. Luenser,  P. Manohar,  
 E. Mansoor,  S. F. Manzer,  Shan-Ping Mao,  Yuezhi Mao,  N. Mardirossian,  
 A. V. Marenich,  T. Markovich,  L. A. Martinez-Martinez,  S. A. Maurer,  
 N. J. Mayhall,  S. C. McKenzie,  J.-M. Mewes,  P. Morgante,  A. F. Morrison,  
 J. W. Mullinax,  K. Nanda,  T. S. Nguyen-Beck,  R. Olivares-Amaya,  
 J. A. Parkhill,  S. K. Paul,  Zheng Pei,  T. M. Perrine,  F. Plasser,  
 P. Pokhilko,  S. Prager,  A. Prociuk,  E. Ramos,  B. Rana,  D. R. Rehn,  
 F. Rob,  M. Scheurer,  M. Schneider,  N. Sergueev,  S. M. Sharada,  
 S. Sharma,  D. W. Small,  T. Stauch,  C. J. Stein,  T. Stein,  Yu-Chuan Su,  
 S. P. Veccham,  A. J. W. Thom,  A. Tkatchenko,  T. Tsuchimochi,  
 N. M. Tubman,  L. Vogt,  M. L. Vidal,  O. Vydrov,  M. A. Watson,  J. Wenzel,  
 M. de Wergifosse,  T. A. Wesolowski,  A. White,  J. Witte,  A. Yamada,  
 Jun Yang,  K. Yao,  S. Yeganeh,  S. R. Yost,  Zhi-Qiang You,  A. Zech,  
 Igor Ying Zhang,  Xing Zhang,  Yan Zhao,  Ying Zhu,  B. R. Brooks,  
 G. K. L. Chan,  C. J. Cramer,  M. S. Gordon,  W. J. Hehre,  A. Klamt,  
 M. W. Schmidt,  C. D. Sherrill,  D. G. Truhlar,  A. Aspuru-Guzik,  R. Baer,  
 A. T. Bell,  N. A. Besley,  Jeng-Da Chai,  A. E. DePrince, III,  
 R. A. DiStasio Jr.,  A. Dreuw,  B. D. Dunietz,  T. R. Furlani,  
 Chao-Ping Hsu,  Yousung Jung,  Jing Kong,  D. S. Lambrecht,  WanZhen Liang,  
 C. Ochsenfeld,  V. A. Rassolov,  L. V. Slipchenko,  J. E. Subotnik,  
 T. Van Voorhis,  J. M. Herbert,  A. I. Krylov,  P. M. W. Gill,  M. Head-Gordon

 Contributors to earlier versions of Q-Chem not listed above: 
 R. D. Adamson,  B. Austin,  J. Baker,  G. J. O. Beran,  K. Brandhorst,  
 S. T. Brown,  E. F. C. Byrd,  A. K. Chakraborty,  C.-L. Cheng,  
 Siu Hung Chien,  D. M. Chipman,  D. L. Crittenden,  H. Dachsel,  
 R. J. Doerksen,  A. D. Dutoi,  L. Fusti-Molnar,  W. A. Goddard III,  
 A. Golubeva-Zadorozhnaya,  S. R. Gwaltney,  G. Hawkins,  A. Heyden,  
 S. Hirata,  G. Kedziora,  F. J. Keil,  C. Kelley,  Jihan Kim,  R. A. King,  
 R. Z. Khaliullin,  P. P. Korambath,  W. Kurlancheek,  A. M. Lee,  M. S. Lee,  
 S. V. Levchenko,  Ching Yeh Lin,  D. Liotard,  R. C. Lochan,  I. Lotan,  
 P. E. Maslen,  N. Nair,  D. P. O'Neill,  D. Neuhauser,  E. Neuscamman,  
 C. M. Oana,  R. Olson,  B. Peters,  R. Peverati,  P. A. Pieniazek,  
 Y. M. Rhee,  J. Ritchie,  M. A. Rohrdanz,  E. Rosta,  N. J. Russ,  
 H. F. Schaefer III,  N. E. Schultz,  N. Shenvi,  A. C. Simmonett,  A. Sodt,  
 D. Stuck,  K. S. Thanthiriwatte,  V. Vanovschi,  Tao Wang,  A. Warshel,  
 C. F. Williams,  Q. Wu,  X. Xu,  W. Zhang

 Please cite Q-Chem as follows:
 Y. Shao et al., Mol. Phys. 113, 184-215 (2015)
 DOI: 10.1080/00268976.2014.952696

 Q-Chem 5.2.2 for Intel X86 EM64T Linux

 Parts of Q-Chem use Armadillo 9.800.1 (Horizon Scraper).
 http://arma.sourceforge.net/

 Q-Chem begins on Sun Apr 12 05:43:45 2020  

Host: cn0821
0

     Scratch files written to /tmp/ypli/6721342.srvc1/qchem171377//
Warning:  Did not find "$end" marker in "$molecule" section

Checking the input file for inconsistencies... 	...done.

--------------------------------------------------------------
User input:
--------------------------------------------------------------
$rem
   JOBTYPE  sp
   EXCHANGE   omegaB97X-D
   BASIS   6-311+G(2df,2pd)
   max_scf_cycles   250
   geom_opt_max_cycles   1500
   basis2 6-31G*
   scf_algorithm rca_diis
   SYM_IGNORE  TRUE
   print_input   true
   geom_opt_dmax   80
   pop_mulliken false
   XC_GRID 000075000302
$end

$molecule
0 1
C       1.2331593625     -0.1365597100     0.2545878477
C       0.0000000360     -0.2467948822     -0.6411162147
H       1.4771578351     -0.7522172074     1.1177161580
H       0.9587249480     0.8594698692     0.6229440366
H       2.1235655431     0.0598447501     -0.3419957522
C       -1.2331590126     -0.1365598631     0.2545883894
H       0.0000000241     -0.6657728106     -1.6434568148
H       -0.0000004235     0.8514919735     -0.6808868563
H       -1.4771582069     -0.7522173118     1.1177164023
H       -2.1235647246     0.0598454592     -0.3419956634
H       -0.9587254416     0.8594703991     0.6229434863
--------------------------------------------------------------
 ----------------------------------------------------------------
             Standard Nuclear Orientation (Angstroms)
    I     Atom           X                Y                Z
 ----------------------------------------------------------------
    1      C       1.2331593625    -0.1365597100     0.2545878477
    2      C       0.0000000360    -0.2467948822    -0.6411162147
    3      H       1.4771578351    -0.7522172074     1.1177161580
    4      H       0.9587249480     0.8594698692     0.6229440366
    5      H       2.1235655431     0.0598447501    -0.3419957522
    6      C      -1.2331590126    -0.1365598631     0.2545883894
    7      H       0.0000000241    -0.6657728106    -1.6434568148
    8      H      -0.0000004235     0.8514919735    -0.6808868563
    9      H      -1.4771582069    -0.7522173118     1.1177164023
   10      H      -2.1235647246     0.0598454592    -0.3419956634
   11      H      -0.9587254416     0.8594703991     0.6229434863
 ----------------------------------------------------------------
 Nuclear Repulsion Energy =          83.90015732 hartrees
 There are       13 alpha and       13 beta electrons
 Requested basis set is 6-311+G(2df,2pd)
 There are 72 shells and 214 basis functions

 Total QAlloc Memory Limit   2000 MB
 Mega-Array Size       188 MB
 MEM_STATIC part       192 MB

                       Distance Matrix (Angstroms)
             C (  1)   C (  2)   H (  3)   H (  4)   H (  5)   C (  6)
   C (  2)  1.528110
   H (  3)  1.087915  2.351795
   H (  4)  1.096848  1.934121  1.763833
   H (  5)  1.089637  2.166341  1.791102  1.710954
   C (  6)  2.466318  1.528110  2.910299  2.435594  3.414980
   H (  7)  2.324505  1.086384  3.132658  2.895184  2.594196  2.324505
   H (  8)  1.836312  1.099007  2.826456  1.618392  2.291525  1.836312
   H (  9)  2.910300  2.351795  2.954316  2.962408  3.969309  1.087915
   H ( 10)  3.414979  2.166340  3.969308  3.327314  4.247130  1.089638
   H ( 11)  2.435595  1.934121  2.962409  1.917450  3.327315  1.096848
             H (  7)   H (  8)   H (  9)   H ( 10)
   H (  8)  1.796840
   H (  9)  3.132658  2.826456
   H ( 10)  2.594195  2.291523  1.791102
   H ( 11)  2.895184  1.618391  1.763834  1.710952
 
 A cutoff of  1.0D-09 yielded   2545 shell pairs
 There are     22641 function pairs (     27850 Cartesian)
 Smallest overlap matrix eigenvalue = 1.16E-04

 Scale SEOQF with 1.000000e-01/1.000000e-01/1.000000e-01

 Standard Electronic Orientation quadrupole field applied
 Nucleus-field energy     =     0.0000000004 hartrees
 Requested basis set is 6-31G(d)
 There are 28 shells and 58 basis functions
 A cutoff of  1.0D-09 yielded    402 shell pairs
 There are      1773 function pairs (      1968 Cartesian)
 Smallest overlap matrix eigenvalue = 5.45E-03
 Guess from superposition of atomic densities
 Warning:  Energy on first SCF cycle will be non-variational
 SAD guess density has 26.000000 electrons
 Long-range K will be added via erf
 Coulomb attenuation parameter = 0.2 bohr**(-1)
 A restricted hybrid HF-DFT SCF calculation will be
 performed using Relaxed Constraint Minimization + Pulay DIIS
 Exchange:     0.2220 Hartree-Fock + 1.0000 wB97X-D + LR-HF
 Correlation:  1.0000 wB97X-D
 Using Euler-Maclaurin-Lebedev (75,302) quadrature formula
 Dispersion:   Grimme D
 SCF converges when DIIS error is below 1.0E-04
 using 3 threads for integral computing
 -------------------------------------------------------
 OpenMP Integral computing Module                
 Release: version 1.0, May 2013, Q-Chem Inc. Pittsburgh 
 -------------------------------------------------------
 using 3 threads for integral computing
 -------------------------------------------------------
 OpenMP Integral computing Module                
 Release: version 1.0, May 2013, Q-Chem Inc. Pittsburgh 
 -------------------------------------------------------
 ---------------------------------------
  Cycle       Energy         DIIS Error
 ---------------------------------------
    1    -119.7528329007      1.03E-01
    2    -118.9874499510      9.04E-03
    3    -119.0088555296      2.62E-03
    4    -119.0229950065      1.82E-03
    5    -119.0238042014      2.81E-04 Done RCA. Switching to DIIS
    6    -119.0244109510      2.08E-04
    7    -119.0244298096      6.49E-06 Convergence criterion met
 ---------------------------------------
 SCF time:  CPU 33.40 s  wall 11.57 s
 SCF   energy in the small basis set = -119.02442981
 Total energy in the small basis set = -119.02442981
 ----------------------------------------------------
  Cycle       Energy    
 ----------------------------------------------------
    1     -16.5547370521     -1.66E+01
 Long-range K will be added via erf
 Coulomb attenuation parameter = 0.2 bohr**(-1)
 A restricted hybrid HF-DFT SCF calculation will be
 performed using Relaxed Constraint Minimization + Pulay DIIS
 Exchange:     0.2220 Hartree-Fock + 1.0000 wB97X-D + LR-HF
 Correlation:  1.0000 wB97X-D
 Using Euler-Maclaurin-Lebedev (75,302) quadrature formula
 Dispersion:   Grimme D
 SCF converges when DIIS error is below 1.0E-05
 Basis2 calculation detected. Using small basis as guess for larger.
 SCFMinFind is unable to tell whether the solution found is close.
 Resetting ReadMinima to 0 and attempting to follow guess.
 SCFMinFind following SCF Guess.
 using 3 threads for integral computing
 -------------------------------------------------------
 OpenMP Integral computing Module                
 Release: version 1.0, May 2013, Q-Chem Inc. Pittsburgh 
 -------------------------------------------------------
 using 3 threads for integral computing
 -------------------------------------------------------
 OpenMP Integral computing Module                
 Release: version 1.0, May 2013, Q-Chem Inc. Pittsburgh 
 -------------------------------------------------------
 ---------------------------------------
  Cycle       Energy         DIIS Error
 ---------------------------------------
    1    -119.0475036655      4.21E-03
    2    -119.0692804692      6.04E-04 Done RCA. Switching to DIIS
    3    -119.0701214224      4.26E-04
    4    -119.0711105606      4.79E-05
    5    -119.0711267930      1.13E-05
    6    -119.0711276889      3.82E-06 Convergence criterion met
 ---------------------------------------
 SCF time:  CPU 98.50 s  wall 33.35 s
 SCF   energy in the final basis set = -119.07112769
 Total energy in the final basis set = -119.07112769
 
 --------------------------------------------------------------
 
                    Orbital Energies (a.u.)
 --------------------------------------------------------------
 
 Alpha MOs
 -- Occupied --
-10.2790 -10.2701 -10.2701  -0.9062  -0.7786  -0.6743  -0.5734  -0.5209
 -0.4988  -0.4420  -0.4348  -0.4112  -0.3716
 -- Virtual --
  0.0670   0.0856   0.0865   0.0938   0.1245   0.1263   0.1278   0.1342
  0.1423   0.1708   0.1749   0.1945   0.2164   0.2408   0.2434   0.2593
  0.2786   0.2917   0.3131   0.3162   0.3329   0.3491   0.4506   0.4608
  0.4635   0.4871   0.5110   0.5159   0.5477   0.5478   0.5706   0.5992
  0.6042   0.6289   0.6301   0.6505   0.6574   0.6965   0.7001   0.7272
  0.7293   0.7995   0.8377   0.8403   0.8646   0.9087   0.9496   0.9848
  1.0204   1.0352   1.0620   1.1024   1.1280   1.1627   1.2130   1.2178
  1.2252   1.2374   1.2940   1.3235   1.3296   1.3546   1.3652   1.3732
  1.4007   1.4139   1.4235   1.4336   1.4577   1.4754   1.5094   1.5434
  1.5538   1.5612   1.5613   1.6151   1.6384   1.6496   1.6648   1.7046
  1.7562   2.3829   2.3918   2.4139   2.5330   2.5822   2.6009   2.6144
  2.6470   2.6776   2.8126   2.8445   2.8545   2.8636   2.9079   2.9097
  2.9691   2.9811   2.9998   3.0051   3.0229   3.0657   3.0680   3.1098
  3.1631   3.1810   3.1932   3.2275   3.2356   3.2621   3.2812   3.2828
  3.3254   3.3487   3.3690   3.3839   3.3843   3.4319   3.4426   3.4957
  3.5259   3.5351   3.5569   3.5602   3.5737   3.5739   3.5843   3.5933
  3.6388   3.6540   3.6728   3.6984   3.7215   3.8012   3.8152   3.8459
  3.9110   3.9282   3.9530   3.9682   3.9864   4.0108   4.0256   4.0978
  4.1157   4.1389   4.1589   4.1698   4.2067   4.2155   4.2459   4.2508
  4.2713   4.3242   4.3470   4.3746   4.3961   4.4762   4.4782   4.5047
  4.5957   4.6008   4.6285   4.8029   4.8324   4.8382   4.8940   4.8961
  4.9270   4.9678   4.9684   5.0190   5.0250   5.1283   5.1468   5.1532
  5.1705   5.2217   5.2720   5.2806   5.3251   5.3394   5.4005   5.4065
  5.4239   5.4367   5.4973   5.5672   5.6356   5.7433   5.7539   5.8002
  5.9779   6.4105   6.4245   6.4551   6.4938   6.5807  25.1595  25.4261
 25.4454
 --------------------------------------------------------------
 
 -----------------------------------------------------------------
                    Cartesian Multipole Moments
 -----------------------------------------------------------------
    Charge (ESU x 10^10)
                -0.0000
    Dipole Moment (Debye)
         X      -0.0000      Y       0.3590      Z      -0.1294
       Tot       0.3816
    Quadrupole Moments (Debye-Ang)
        XX     -22.3024     XY      -0.0000     YY     -22.0380
        XZ      -0.0000     YZ      -0.1960     ZZ     -21.5736
    Octopole Moments (Debye-Ang^2)
       XXX      -0.0000    XXY       2.1077    XYY      -0.0000
       YYY       8.0444    XXZ      -0.6538    XYZ       0.0000
       YYZ       0.7001    XZZ      -0.0000    YZZ       0.2928
       ZZZ      -0.2260
    Hexadecapole Moments (Debye-Ang^3)
      XXXX    -192.1494   XXXY      -0.0000   XXYY     -41.5285
      XYYY       0.0000   YYYY     -44.5592   XXXZ      -0.0000
      XXYZ      -2.5258   XYYZ       0.0000   YYYZ      -1.2828
      XXZZ     -42.8602   XYZZ       0.0000   YYZZ     -19.0881
      XZZZ       0.0000   YZZZ      -0.6083   ZZZZ     -69.3780
 -----------------------------------------------------------------
Archival summary:
1\1\cn0821\SP\ProcedureUnspecified\BasisUnspecified\38\r0852400\SunApr1205:44:342020SunApr1205:44:342020\0\\#,ProcedureUnspecified,BasisUnspecified,\\0,1\C\H,1,1.08638\H,1,1.09901,2,110.611\C,1,1.52811,2,124.655,3,-101.18,0\H,4,1.08792,1,127.244,2,-105.012,0\H,4,1.08964,1,110.58,2,34.3871,0\H,4,1.09685,1,93.4654,2,139.643,0\C,1,1.52811,2,124.655,3,101.18,0\H,8,1.08792,1,127.244,2,105.012,0\H,8,1.08964,1,110.58,2,-34.3872,0\H,8,1.09685,1,93.4654,2,-139.643,0\\\@

 Total job time:  49.16s(wall), 137.10s(cpu) 
 Sun Apr 12 05:44:34 2020

        *************************************************************
        *                                                           *
        *  Thank you very much for using Q-Chem.  Have a nice day.  *
        *                                                           *
        *************************************************************


