                  Welcome to Q-Chem
     A Quantum Leap Into The Future Of Chemistry


 Q-Chem 5.2 (devel), Q-Chem, Inc., Pleasanton, CA (2019)

 Yihan Shao,  Zhengting Gan,  E. Epifanovsky,  A. T. B. Gilbert,  M. Wormit,  
 J. Kussmann,  A. W. Lange,  A. Behn,  Jia Deng,  Xintian Feng,  D. Ghosh,  
 M. Goldey,  P. R. Horn,  L. D. Jacobson,  I. Kaliman,  T. Kus,  A. Landau,  
 Jie Liu,  E. I. Proynov,  R. M. Richard,  R. P. Steele,  E. J. Sundstrom,  
 H. L. Woodcock III,  P. M. Zimmerman,  D. Zuev,  B. Alam,  B. Albrecht,  
 E. Alguire,  S. A. Baeppler,  D. Barton,  Z. Benda,  Y. A. Bernard,  
 E. J. Berquist,  K. B. Bravaya,  H. Burton,  K. Carter-Fenk,  D. Casanova,  
 Chun-Min Chang,  Yunqing Chen,  A. Chien,  K. D. Closser,  M. P. Coons,  
 S. Coriani,  S. Dasgupta,  A. L. Dempwolff,  M. Diedenhofen,  Hainam Do,  
 R. G. Edgar,  Po-Tung Fang,  S. Faraji,  S. Fatehi,  Qingguo Feng,  
 J. Fosso-Tande,  J. Gayvert,  Qinghui Ge,  A. Ghysels,  G. Gidofalvi,  
 J. Gomes,  J. Gonthier,  A. Gunina,  D. Hait,  M. W. D. Hanson-Heine,  
 P. H. P. Harbach,  A. W. Hauser,  M. F. Herbst,  J. E. Herr,  
 E. G. Hohenstein,  Z. C. Holden,  Kerwin Hui,  B. C. Huynh,  T.-C. Jagau,  
 Hyunjun Ji,  B. Kaduk,  K. Khistyaev,  Jaehoon Kim,  P. Klunzinger,  K. Koh,  
 D. Kosenkov,  L. Koulias,  T. Kowalczyk,  C. M. Krauter,  A. Kunitsa,  
 Ka Un Lao,  A. Laurent,  K. V. Lawler,  Joonho Lee,  D. Lefrancois,  
 S. Lehtola,  D. S. Levine,  Yi-Pei Li,  You-Sheng Lin,  Fenglai Liu,  
 Kuan-Yu Liu,  E. Livshits,  M. Loipersberger,  A. Luenser,  P. Manohar,  
 E. Mansoor,  S. F. Manzer,  Shan-Ping Mao,  Yuezhi Mao,  N. Mardirossian,  
 A. V. Marenich,  T. Markovich,  L. A. Martinez-Martinez,  S. A. Maurer,  
 N. J. Mayhall,  S. C. McKenzie,  J.-M. Mewes,  P. Morgante,  A. F. Morrison,  
 J. W. Mullinax,  K. Nanda,  T. S. Nguyen-Beck,  R. Olivares-Amaya,  
 J. A. Parkhill,  S. K. Paul,  Zheng Pei,  T. M. Perrine,  F. Plasser,  
 P. Pokhilko,  S. Prager,  A. Prociuk,  E. Ramos,  B. Rana,  D. R. Rehn,  
 F. Rob,  M. Scheurer,  M. Schneider,  N. Sergueev,  S. M. Sharada,  
 S. Sharma,  D. W. Small,  T. Stauch,  C. J. Stein,  T. Stein,  Yu-Chuan Su,  
 S. P. Veccham,  A. J. W. Thom,  A. Tkatchenko,  T. Tsuchimochi,  
 N. M. Tubman,  L. Vogt,  M. L. Vidal,  O. Vydrov,  M. A. Watson,  J. Wenzel,  
 M. de Wergifosse,  T. A. Wesolowski,  A. White,  J. Witte,  A. Yamada,  
 Jun Yang,  K. Yao,  S. Yeganeh,  S. R. Yost,  Zhi-Qiang You,  A. Zech,  
 Igor Ying Zhang,  Xing Zhang,  Yan Zhao,  Ying Zhu,  B. R. Brooks,  
 G. K. L. Chan,  C. J. Cramer,  M. S. Gordon,  W. J. Hehre,  A. Klamt,  
 M. W. Schmidt,  C. D. Sherrill,  D. G. Truhlar,  A. Aspuru-Guzik,  R. Baer,  
 A. T. Bell,  N. A. Besley,  Jeng-Da Chai,  A. E. DePrince, III,  
 R. A. DiStasio Jr.,  A. Dreuw,  B. D. Dunietz,  T. R. Furlani,  
 Chao-Ping Hsu,  Yousung Jung,  Jing Kong,  D. S. Lambrecht,  WanZhen Liang,  
 C. Ochsenfeld,  V. A. Rassolov,  L. V. Slipchenko,  J. E. Subotnik,  
 T. Van Voorhis,  J. M. Herbert,  A. I. Krylov,  P. M. W. Gill,  M. Head-Gordon

 Contributors to earlier versions of Q-Chem not listed above: 
 R. D. Adamson,  B. Austin,  J. Baker,  G. J. O. Beran,  K. Brandhorst,  
 S. T. Brown,  E. F. C. Byrd,  A. K. Chakraborty,  C.-L. Cheng,  
 Siu Hung Chien,  D. M. Chipman,  D. L. Crittenden,  H. Dachsel,  
 R. J. Doerksen,  A. D. Dutoi,  L. Fusti-Molnar,  W. A. Goddard III,  
 A. Golubeva-Zadorozhnaya,  S. R. Gwaltney,  G. Hawkins,  A. Heyden,  
 S. Hirata,  G. Kedziora,  F. J. Keil,  C. Kelley,  Jihan Kim,  R. A. King,  
 R. Z. Khaliullin,  P. P. Korambath,  W. Kurlancheek,  A. M. Lee,  M. S. Lee,  
 S. V. Levchenko,  Ching Yeh Lin,  D. Liotard,  R. C. Lochan,  I. Lotan,  
 P. E. Maslen,  N. Nair,  D. P. O'Neill,  D. Neuhauser,  E. Neuscamman,  
 C. M. Oana,  R. Olson,  B. Peters,  R. Peverati,  P. A. Pieniazek,  
 Y. M. Rhee,  J. Ritchie,  M. A. Rohrdanz,  E. Rosta,  N. J. Russ,  
 H. F. Schaefer III,  N. E. Schultz,  N. Shenvi,  A. C. Simmonett,  A. Sodt,  
 D. Stuck,  K. S. Thanthiriwatte,  V. Vanovschi,  Tao Wang,  A. Warshel,  
 C. F. Williams,  Q. Wu,  X. Xu,  W. Zhang

 Please cite Q-Chem as follows:
 Y. Shao et al., Mol. Phys. 113, 184-215 (2015)
 DOI: 10.1080/00268976.2014.952696

 Q-Chem 5.2.2 for Intel X86 EM64T Linux

 Parts of Q-Chem use Armadillo 9.800.1 (Horizon Scraper).
 http://arma.sourceforge.net/

 Q-Chem begins on Sun Apr 12 08:28:56 2020  

Host: cn0821
0

     Scratch files written to /tmp/ypli/6721342.srvc1/qchem196515//
Warning:  Did not find "$end" marker in "$molecule" section

Checking the input file for inconsistencies... 	...done.

--------------------------------------------------------------
User input:
--------------------------------------------------------------
$rem
   JOBTYPE  sp
   EXCHANGE   omegaB97X-D
   BASIS   6-311+G(2df,2pd)
   max_scf_cycles   250
   geom_opt_max_cycles   1500
   basis2 6-31G*
   scf_algorithm rca_diis
   SYM_IGNORE  TRUE
   print_input   true
   geom_opt_dmax   80
   pop_mulliken false
   XC_GRID 000075000302
$end

$molecule
0 1
C       1.2676342627     0.0642616931     0.2578847510
C       -0.0000014250     0.0605645666     -0.5883994919
H       1.3096255261     -0.9413092829     0.9815540144
H       1.3011556541     0.8262282291     0.8251167754
H       2.1589610854     0.0505609189     -0.3571141591
C       -1.2676439185     0.0642632192     0.2578748540
H       -0.0000000572     -0.9032400563     -1.3019051049
H       0.0000000597     0.8431946947     -1.1835481263
H       -1.3096369969     -0.9413285963     0.9815619109
H       -2.1589283933     0.0505637175     -0.3570988196
H       -1.3011658576     0.8262415624     0.8251184149
--------------------------------------------------------------
 ----------------------------------------------------------------
             Standard Nuclear Orientation (Angstroms)
    I     Atom           X                Y                Z
 ----------------------------------------------------------------
    1      C       1.2676342627     0.0642616931     0.2578847510
    2      C      -0.0000014250     0.0605645666    -0.5883994919
    3      H       1.3096255261    -0.9413092829     0.9815540144
    4      H       1.3011556541     0.8262282291     0.8251167754
    5      H       2.1589610854     0.0505609189    -0.3571141591
    6      C      -1.2676439185     0.0642632192     0.2578748540
    7      H      -0.0000000572    -0.9032400563    -1.3019051049
    8      H       0.0000000597     0.8431946947    -1.1835481263
    9      H      -1.3096369969    -0.9413285963     0.9815619109
   10      H      -2.1589283933     0.0505637175    -0.3570988196
   11      H      -1.3011658576     0.8262415624     0.8251184149
 ----------------------------------------------------------------
 Nuclear Repulsion Energy =          83.02127010 hartrees
 There are       13 alpha and       13 beta electrons
 Requested basis set is 6-311+G(2df,2pd)
 There are 72 shells and 214 basis functions

 Total QAlloc Memory Limit   2000 MB
 Mega-Array Size       188 MB
 MEM_STATIC part       192 MB

                       Distance Matrix (Angstroms)
             C (  1)   C (  2)   H (  3)   H (  4)   H (  5)   C (  6)
   C (  2)  1.524175
   H (  3)  1.239610  2.276758
   H (  4)  0.950510  2.068158  1.774467
   H (  5)  1.082993  2.171339  1.870083  1.653832
   C (  6)  2.535278  1.524176  2.859581  2.738811  3.481382
   H (  7)  2.230673  1.199170  2.632633  3.034516  2.542337  2.230672
   H (  8)  2.071560  0.983215  3.096327  2.393330  2.443844  2.071559
   H (  9)  2.859589  2.276777  2.619263  3.156734  3.847996  1.239638
   H ( 10)  3.481339  2.171305  3.847944  3.737843  4.317889  1.082944
   H ( 11)  2.738814  2.068169  3.156729  2.602322  3.737891  0.950526
             H (  7)   H (  8)   H (  9)   H ( 10)
   H (  8)  1.750441
   H (  9)  2.632645  3.096349
   H ( 10)  2.542316  2.443820  1.870069
   H ( 11)  3.034529  2.393337  1.774500  1.653805
 
 A cutoff of  1.0D-09 yielded   2532 shell pairs
 There are     22578 function pairs (     27759 Cartesian)
 Smallest overlap matrix eigenvalue = 8.69E-05

 Scale SEOQF with 1.000000e-01/1.000000e-01/1.000000e-01

 Standard Electronic Orientation quadrupole field applied
 Nucleus-field energy     =     0.0000000006 hartrees
 Requested basis set is 6-31G(d)
 There are 28 shells and 58 basis functions
 A cutoff of  1.0D-09 yielded    402 shell pairs
 There are      1773 function pairs (      1968 Cartesian)
 Smallest overlap matrix eigenvalue = 6.67E-03
 Guess from superposition of atomic densities
 Warning:  Energy on first SCF cycle will be non-variational
 SAD guess density has 26.000000 electrons
 Long-range K will be added via erf
 Coulomb attenuation parameter = 0.2 bohr**(-1)
 A restricted hybrid HF-DFT SCF calculation will be
 performed using Relaxed Constraint Minimization + Pulay DIIS
 Exchange:     0.2220 Hartree-Fock + 1.0000 wB97X-D + LR-HF
 Correlation:  1.0000 wB97X-D
 Using Euler-Maclaurin-Lebedev (75,302) quadrature formula
 Dispersion:   Grimme D
 SCF converges when DIIS error is below 1.0E-04
 using 3 threads for integral computing
 -------------------------------------------------------
 OpenMP Integral computing Module                
 Release: version 1.0, May 2013, Q-Chem Inc. Pittsburgh 
 -------------------------------------------------------
 using 3 threads for integral computing
 -------------------------------------------------------
 OpenMP Integral computing Module                
 Release: version 1.0, May 2013, Q-Chem Inc. Pittsburgh 
 -------------------------------------------------------
 ---------------------------------------
  Cycle       Energy         DIIS Error
 ---------------------------------------
    1    -119.6129966634      1.03E-01
    2    -118.9925363940      9.56E-03
    3    -119.0164863736      2.50E-03
    4    -119.0329001625      1.69E-03
    5    -119.0336109090      2.60E-04 Done RCA. Switching to DIIS
    6    -119.0341446199      1.90E-04
    7    -119.0341606491      5.02E-06 Convergence criterion met
 ---------------------------------------
 SCF time:  CPU 32.93 s  wall 11.37 s
 SCF   energy in the small basis set = -119.03416065
 Total energy in the small basis set = -119.03416065
 ----------------------------------------------------
  Cycle       Energy    
 ----------------------------------------------------
    1     -16.5675198798     -1.66E+01
 Long-range K will be added via erf
 Coulomb attenuation parameter = 0.2 bohr**(-1)
 A restricted hybrid HF-DFT SCF calculation will be
 performed using Relaxed Constraint Minimization + Pulay DIIS
 Exchange:     0.2220 Hartree-Fock + 1.0000 wB97X-D + LR-HF
 Correlation:  1.0000 wB97X-D
 Using Euler-Maclaurin-Lebedev (75,302) quadrature formula
 Dispersion:   Grimme D
 SCF converges when DIIS error is below 1.0E-05
 Basis2 calculation detected. Using small basis as guess for larger.
 SCFMinFind is unable to tell whether the solution found is close.
 Resetting ReadMinima to 0 and attempting to follow guess.
 SCFMinFind following SCF Guess.
 using 3 threads for integral computing
 -------------------------------------------------------
 OpenMP Integral computing Module                
 Release: version 1.0, May 2013, Q-Chem Inc. Pittsburgh 
 -------------------------------------------------------
 using 3 threads for integral computing
 -------------------------------------------------------
 OpenMP Integral computing Module                
 Release: version 1.0, May 2013, Q-Chem Inc. Pittsburgh 
 -------------------------------------------------------
 ---------------------------------------
  Cycle       Energy         DIIS Error
 ---------------------------------------
    1    -119.0562518426      4.21E-03
    2    -119.0782017625      5.80E-04 Done RCA. Switching to DIIS
    3    -119.0789789839      4.08E-04
    4    -119.0798958529      4.65E-05
    5    -119.0799112977      9.80E-06 Convergence criterion met
 ---------------------------------------
 SCF time:  CPU 84.05 s  wall 28.44 s
 SCF   energy in the final basis set = -119.07991130
 Total energy in the final basis set = -119.07991130
 
 --------------------------------------------------------------
 
                    Orbital Energies (a.u.)
 --------------------------------------------------------------
 
 Alpha MOs
 -- Occupied --
-10.2742 -10.2636 -10.2636  -0.8867  -0.7850  -0.6873  -0.5484  -0.5273
 -0.5021  -0.4458  -0.4199  -0.4173  -0.4045
 -- Virtual --
  0.0675   0.0851   0.0907   0.0985   0.1243   0.1289   0.1343   0.1400
  0.1425   0.1696   0.1704   0.1879   0.2202   0.2329   0.2367   0.2646
  0.2854   0.2874   0.3124   0.3164   0.3357   0.3543   0.4515   0.4714
  0.4718   0.5091   0.5150   0.5189   0.5454   0.5596   0.5753   0.5810
  0.6199   0.6286   0.6353   0.6441   0.6576   0.6619   0.7330   0.7339
  0.7475   0.7663   0.8242   0.8555   0.8726   0.8792   0.8911   0.9549
  0.9969   1.0516   1.0585   1.1303   1.1453   1.1807   1.1829   1.2142
  1.2196   1.2434   1.2499   1.2746   1.2915   1.2937   1.3266   1.3675
  1.3902   1.3937   1.3960   1.4256   1.4471   1.4540   1.4725   1.4880
  1.5427   1.5869   1.5946   1.6137   1.6381   1.6790   1.7201   1.7421
  1.7729   2.3427   2.4060   2.4596   2.4950   2.5602   2.5835   2.5861
  2.6904   2.7255   2.8108   2.8235   2.8380   2.8931   2.9086   2.9138
  2.9277   2.9375   2.9906   3.0188   3.0330   3.0595   3.0926   3.1066
  3.1069   3.1509   3.1674   3.1823   3.2308   3.2576   3.2588   3.2758
  3.3102   3.3201   3.3430   3.3458   3.3482   3.3844   3.3986   3.4270
  3.4416   3.4918   3.4926   3.5273   3.5396   3.5534   3.5992   3.6006
  3.6196   3.6586   3.6797   3.7209   3.7512   3.7692   3.8620   3.8719
  3.8802   3.9352   3.9373   3.9542   3.9648   4.0178   4.0204   4.0680
  4.0897   4.0910   4.1297   4.1415   4.1488   4.1614   4.2055   4.2273
  4.2340   4.2739   4.2835   4.3353   4.3582   4.3875   4.4089   4.4398
  4.4539   4.5379   4.5896   4.5921   4.6319   4.7194   4.8183   4.8227
  4.8408   4.8502   4.9529   4.9603   4.9993   5.0254   5.0343   5.1461
  5.1980   5.2497   5.2835   5.2908   5.3558   5.4388   5.4904   5.4975
  5.5719   5.5930   5.6320   5.6537   5.6884   5.7430   5.7870   5.8150
  5.9186   6.2162   6.2172   6.5081   6.5982   6.6231  25.1503  25.3729
 25.3828
 --------------------------------------------------------------
 
 -----------------------------------------------------------------
                    Cartesian Multipole Moments
 -----------------------------------------------------------------
    Charge (ESU x 10^10)
                -0.0000
    Dipole Moment (Debye)
         X      -0.0000      Y       0.4514      Z      -0.1379
       Tot       0.4720
    Quadrupole Moments (Debye-Ang)
        XX     -22.1133     XY      -0.0000     YY     -21.3081
        XZ       0.0001     YZ      -0.0063     ZZ     -21.9278
    Octopole Moments (Debye-Ang^2)
       XXX      -0.0001    XXY       0.5401    XYY      -0.0000
       YYY      -0.5476    XXZ      -1.7166    XYZ      -0.0000
       YYZ       0.4580    XZZ       0.0001    YZZ      -0.1347
       ZZZ      -0.5473
    Hexadecapole Moments (Debye-Ang^3)
      XXXX    -201.5438   XXXY      -0.0002   XXYY     -42.2436
      XYYY      -0.0001   YYYY     -44.7880   XXXZ       0.0003
      XXYZ       0.7461   XYYZ       0.0001   YYYZ       1.2184
      XXZZ     -45.5333   XYZZ      -0.0000   YYZZ     -17.2553
      XZZZ       0.0003   YZZZ       1.3318   ZZZZ     -73.2121
 -----------------------------------------------------------------
Archival summary:
1\1\cn0821\SP\ProcedureUnspecified\BasisUnspecified\38\r0852400\SunApr1208:29:402020SunApr1208:29:402020\0\\#,ProcedureUnspecified,BasisUnspecified,\\0,1\C\H,1,0.983215\H,1,1.19917,2,106.236\C,1,1.52418,2,109.521,3,118.065,0\H,4,0.95051,1,111.261,2,63.053,0\H,4,1.08299,1,111.664,2,-58.55,0\H,4,1.23961,1,110.509,2,-177.603,0\C,1,1.52418,2,109.521,3,-118.065,0\H,8,0.950526,1,111.261,2,-63.0533,0\H,8,1.08294,1,111.664,2,58.55,0\H,8,1.23964,1,110.508,2,177.603,0\\\@

 Total job time:  44.13s(wall), 122.23s(cpu) 
 Sun Apr 12 08:29:40 2020

        *************************************************************
        *                                                           *
        *  Thank you very much for using Q-Chem.  Have a nice day.  *
        *                                                           *
        *************************************************************


