                  Welcome to Q-Chem
     A Quantum Leap Into The Future Of Chemistry


 Q-Chem 5.2 (devel), Q-Chem, Inc., Pleasanton, CA (2019)

 Yihan Shao,  Zhengting Gan,  E. Epifanovsky,  A. T. B. Gilbert,  M. Wormit,  
 J. Kussmann,  A. W. Lange,  A. Behn,  Jia Deng,  Xintian Feng,  D. Ghosh,  
 M. Goldey,  P. R. Horn,  L. D. Jacobson,  I. Kaliman,  T. Kus,  A. Landau,  
 Jie Liu,  E. I. Proynov,  R. M. Richard,  R. P. Steele,  E. J. Sundstrom,  
 H. L. Woodcock III,  P. M. Zimmerman,  D. Zuev,  B. Alam,  B. Albrecht,  
 E. Alguire,  S. A. Baeppler,  D. Barton,  Z. Benda,  Y. A. Bernard,  
 E. J. Berquist,  K. B. Bravaya,  H. Burton,  K. Carter-Fenk,  D. Casanova,  
 Chun-Min Chang,  Yunqing Chen,  A. Chien,  K. D. Closser,  M. P. Coons,  
 S. Coriani,  S. Dasgupta,  A. L. Dempwolff,  M. Diedenhofen,  Hainam Do,  
 R. G. Edgar,  Po-Tung Fang,  S. Faraji,  S. Fatehi,  Qingguo Feng,  
 J. Fosso-Tande,  J. Gayvert,  Qinghui Ge,  A. Ghysels,  G. Gidofalvi,  
 J. Gomes,  J. Gonthier,  A. Gunina,  D. Hait,  M. W. D. Hanson-Heine,  
 P. H. P. Harbach,  A. W. Hauser,  M. F. Herbst,  J. E. Herr,  
 E. G. Hohenstein,  Z. C. Holden,  Kerwin Hui,  B. C. Huynh,  T.-C. Jagau,  
 Hyunjun Ji,  B. Kaduk,  K. Khistyaev,  Jaehoon Kim,  P. Klunzinger,  K. Koh,  
 D. Kosenkov,  L. Koulias,  T. Kowalczyk,  C. M. Krauter,  A. Kunitsa,  
 Ka Un Lao,  A. Laurent,  K. V. Lawler,  Joonho Lee,  D. Lefrancois,  
 S. Lehtola,  D. S. Levine,  Yi-Pei Li,  You-Sheng Lin,  Fenglai Liu,  
 Kuan-Yu Liu,  E. Livshits,  M. Loipersberger,  A. Luenser,  P. Manohar,  
 E. Mansoor,  S. F. Manzer,  Shan-Ping Mao,  Yuezhi Mao,  N. Mardirossian,  
 A. V. Marenich,  T. Markovich,  L. A. Martinez-Martinez,  S. A. Maurer,  
 N. J. Mayhall,  S. C. McKenzie,  J.-M. Mewes,  P. Morgante,  A. F. Morrison,  
 J. W. Mullinax,  K. Nanda,  T. S. Nguyen-Beck,  R. Olivares-Amaya,  
 J. A. Parkhill,  S. K. Paul,  Zheng Pei,  T. M. Perrine,  F. Plasser,  
 P. Pokhilko,  S. Prager,  A. Prociuk,  E. Ramos,  B. Rana,  D. R. Rehn,  
 F. Rob,  M. Scheurer,  M. Schneider,  N. Sergueev,  S. M. Sharada,  
 S. Sharma,  D. W. Small,  T. Stauch,  C. J. Stein,  T. Stein,  Yu-Chuan Su,  
 S. P. Veccham,  A. J. W. Thom,  A. Tkatchenko,  T. Tsuchimochi,  
 N. M. Tubman,  L. Vogt,  M. L. Vidal,  O. Vydrov,  M. A. Watson,  J. Wenzel,  
 M. de Wergifosse,  T. A. Wesolowski,  A. White,  J. Witte,  A. Yamada,  
 Jun Yang,  K. Yao,  S. Yeganeh,  S. R. Yost,  Zhi-Qiang You,  A. Zech,  
 Igor Ying Zhang,  Xing Zhang,  Yan Zhao,  Ying Zhu,  B. R. Brooks,  
 G. K. L. Chan,  C. J. Cramer,  M. S. Gordon,  W. J. Hehre,  A. Klamt,  
 M. W. Schmidt,  C. D. Sherrill,  D. G. Truhlar,  A. Aspuru-Guzik,  R. Baer,  
 A. T. Bell,  N. A. Besley,  Jeng-Da Chai,  A. E. DePrince, III,  
 R. A. DiStasio Jr.,  A. Dreuw,  B. D. Dunietz,  T. R. Furlani,  
 Chao-Ping Hsu,  Yousung Jung,  Jing Kong,  D. S. Lambrecht,  WanZhen Liang,  
 C. Ochsenfeld,  V. A. Rassolov,  L. V. Slipchenko,  J. E. Subotnik,  
 T. Van Voorhis,  J. M. Herbert,  A. I. Krylov,  P. M. W. Gill,  M. Head-Gordon

 Contributors to earlier versions of Q-Chem not listed above: 
 R. D. Adamson,  B. Austin,  J. Baker,  G. J. O. Beran,  K. Brandhorst,  
 S. T. Brown,  E. F. C. Byrd,  A. K. Chakraborty,  C.-L. Cheng,  
 Siu Hung Chien,  D. M. Chipman,  D. L. Crittenden,  H. Dachsel,  
 R. J. Doerksen,  A. D. Dutoi,  L. Fusti-Molnar,  W. A. Goddard III,  
 A. Golubeva-Zadorozhnaya,  S. R. Gwaltney,  G. Hawkins,  A. Heyden,  
 S. Hirata,  G. Kedziora,  F. J. Keil,  C. Kelley,  Jihan Kim,  R. A. King,  
 R. Z. Khaliullin,  P. P. Korambath,  W. Kurlancheek,  A. M. Lee,  M. S. Lee,  
 S. V. Levchenko,  Ching Yeh Lin,  D. Liotard,  R. C. Lochan,  I. Lotan,  
 P. E. Maslen,  N. Nair,  D. P. O'Neill,  D. Neuhauser,  E. Neuscamman,  
 C. M. Oana,  R. Olson,  B. Peters,  R. Peverati,  P. A. Pieniazek,  
 Y. M. Rhee,  J. Ritchie,  M. A. Rohrdanz,  E. Rosta,  N. J. Russ,  
 H. F. Schaefer III,  N. E. Schultz,  N. Shenvi,  A. C. Simmonett,  A. Sodt,  
 D. Stuck,  K. S. Thanthiriwatte,  V. Vanovschi,  Tao Wang,  A. Warshel,  
 C. F. Williams,  Q. Wu,  X. Xu,  W. Zhang

 Please cite Q-Chem as follows:
 Y. Shao et al., Mol. Phys. 113, 184-215 (2015)
 DOI: 10.1080/00268976.2014.952696

 Q-Chem 5.2.2 for Intel X86 EM64T Linux

 Parts of Q-Chem use Armadillo 9.800.1 (Horizon Scraper).
 http://arma.sourceforge.net/

 Q-Chem begins on Sun Apr 12 05:30:03 2020  

Host: cn0821
0

     Scratch files written to /tmp/ypli/6721342.srvc1/qchem169546//
Warning:  Did not find "$end" marker in "$molecule" section

Checking the input file for inconsistencies... 	...done.

--------------------------------------------------------------
User input:
--------------------------------------------------------------
$rem
   JOBTYPE  sp
   EXCHANGE   omegaB97X-D
   BASIS   6-311+G(2df,2pd)
   max_scf_cycles   250
   geom_opt_max_cycles   1500
   basis2 6-31G*
   scf_algorithm rca_diis
   SYM_IGNORE  TRUE
   print_input   true
   geom_opt_dmax   80
   pop_mulliken false
   XC_GRID 000075000302
$end

$molecule
0 1
C       1.0223947241     0.0002420054     0.2625369223
C       0.0000000699     -0.0035916294     -0.8363869077
H       0.7999849093     -0.8704409631     0.8847462469
H       0.7951032552     0.8722163524     0.8806884486
H       2.0863789207     -0.0014222660     0.0368047161
C       -1.0223943241     0.0002421901     0.2625371965
H       -0.0000005511     -0.8816771392     -1.4823292633
H       0.0000001898     0.8840787193     -1.4697918674
H       -0.7999849719     -0.8704412918     0.8847459330
H       -2.0863785798     -0.0014218105     0.0368044163
H       -0.7951037029     0.8722164988     0.8806891777
--------------------------------------------------------------
 ----------------------------------------------------------------
             Standard Nuclear Orientation (Angstroms)
    I     Atom           X                Y                Z
 ----------------------------------------------------------------
    1      C       1.0223947241     0.0002420054     0.2625369223
    2      C       0.0000000699    -0.0035916294    -0.8363869077
    3      H       0.7999849093    -0.8704409631     0.8847462469
    4      H       0.7951032552     0.8722163524     0.8806884486
    5      H       2.0863789207    -0.0014222660     0.0368047161
    6      C      -1.0223943241     0.0002421901     0.2625371965
    7      H      -0.0000005511    -0.8816771392    -1.4823292633
    8      H       0.0000001898     0.8840787193    -1.4697918674
    9      H      -0.7999849719    -0.8704412918     0.8847459330
   10      H      -2.0863785798    -0.0014218105     0.0368044163
   11      H      -0.7951037029     0.8722164988     0.8806891777
 ----------------------------------------------------------------
 Nuclear Repulsion Energy =          87.03797108 hartrees
 There are       13 alpha and       13 beta electrons
 Requested basis set is 6-311+G(2df,2pd)
 There are 72 shells and 214 basis functions

 Total QAlloc Memory Limit   2000 MB
 Mega-Array Size       188 MB
 MEM_STATIC part       192 MB

                       Distance Matrix (Angstroms)
             C (  1)   C (  2)   H (  3)   H (  4)   H (  5)   C (  6)
   C (  2)  1.500979
   H (  3)  1.093023  2.086553
   H (  4)  1.092754  2.085084  1.742669
   H (  5)  1.087667  2.261735  1.768900  1.772788
   C (  6)  2.044789  1.500979  2.113362  2.108494  3.116958
   H (  7)  2.206271  1.090081  2.498630  3.048309  2.726829  2.206271
   H (  8)  2.197139  1.090486  3.043380  2.481348  2.721566  2.197139
   H (  9)  2.113363  2.086553  1.599970  2.362452  3.131341  1.093023
   H ( 10)  3.116958  2.261735  3.131341  3.127031  4.172758  1.087667
   H ( 11)  2.108495  2.085085  2.362452  1.590207  3.127032  1.092754
             H (  7)   H (  8)   H (  9)   H ( 10)
   H (  8)  1.765800
   H (  9)  2.498629  3.043381
   H ( 10)  2.726828  2.721566  1.768900
   H ( 11)  3.048309  2.481349  1.742669  1.772788
 
 A cutoff of  1.0D-09 yielded   2579 shell pairs
 There are     23043 function pairs (     28356 Cartesian)
 Smallest overlap matrix eigenvalue = 6.44E-05

 Scale SEOQF with 1.000000e-01/1.000000e-01/1.000000e-01

 Standard Electronic Orientation quadrupole field applied
 Nucleus-field energy     =    -0.0000000002 hartrees
 Requested basis set is 6-31G(d)
 There are 28 shells and 58 basis functions
 A cutoff of  1.0D-09 yielded    404 shell pairs
 There are      1775 function pairs (      1970 Cartesian)
 Smallest overlap matrix eigenvalue = 6.71E-03
 Guess from superposition of atomic densities
 Warning:  Energy on first SCF cycle will be non-variational
 SAD guess density has 26.000000 electrons
 Long-range K will be added via erf
 Coulomb attenuation parameter = 0.2 bohr**(-1)
 A restricted hybrid HF-DFT SCF calculation will be
 performed using Relaxed Constraint Minimization + Pulay DIIS
 Exchange:     0.2220 Hartree-Fock + 1.0000 wB97X-D + LR-HF
 Correlation:  1.0000 wB97X-D
 Using Euler-Maclaurin-Lebedev (75,302) quadrature formula
 Dispersion:   Grimme D
 SCF converges when DIIS error is below 1.0E-04
 using 3 threads for integral computing
 -------------------------------------------------------
 OpenMP Integral computing Module                
 Release: version 1.0, May 2013, Q-Chem Inc. Pittsburgh 
 -------------------------------------------------------
 using 3 threads for integral computing
 -------------------------------------------------------
 OpenMP Integral computing Module                
 Release: version 1.0, May 2013, Q-Chem Inc. Pittsburgh 
 -------------------------------------------------------
 ---------------------------------------
  Cycle       Energy         DIIS Error
 ---------------------------------------
    1    -119.8988384757      1.07E-01
    2    -119.0014471559      9.47E-03
    3    -119.0235453894      2.42E-03
    4    -119.0397811027      1.68E-03
    5    -119.0404261353      2.08E-04 Done RCA. Switching to DIIS
    6    -119.0409503200      1.53E-04
    7    -119.0409603107      3.21E-06 Convergence criterion met
 ---------------------------------------
 SCF time:  CPU 33.88 s  wall 11.71 s
 SCF   energy in the small basis set = -119.04096031
 Total energy in the small basis set = -119.04096031
 ----------------------------------------------------
  Cycle       Energy    
 ----------------------------------------------------
    1     -16.6051263238     -1.66E+01
 Long-range K will be added via erf
 Coulomb attenuation parameter = 0.2 bohr**(-1)
 A restricted hybrid HF-DFT SCF calculation will be
 performed using Relaxed Constraint Minimization + Pulay DIIS
 Exchange:     0.2220 Hartree-Fock + 1.0000 wB97X-D + LR-HF
 Correlation:  1.0000 wB97X-D
 Using Euler-Maclaurin-Lebedev (75,302) quadrature formula
 Dispersion:   Grimme D
 SCF converges when DIIS error is below 1.0E-05
 Basis2 calculation detected. Using small basis as guess for larger.
 SCFMinFind is unable to tell whether the solution found is close.
 Resetting ReadMinima to 0 and attempting to follow guess.
 SCFMinFind following SCF Guess.
 using 3 threads for integral computing
 -------------------------------------------------------
 OpenMP Integral computing Module                
 Release: version 1.0, May 2013, Q-Chem Inc. Pittsburgh 
 -------------------------------------------------------
 using 3 threads for integral computing
 -------------------------------------------------------
 OpenMP Integral computing Module                
 Release: version 1.0, May 2013, Q-Chem Inc. Pittsburgh 
 -------------------------------------------------------
 ---------------------------------------
  Cycle       Energy         DIIS Error
 ---------------------------------------
    1    -119.0633577184      4.21E-03
    2    -119.0850170215      6.16E-04 Done RCA. Switching to DIIS
    3    -119.0857307032      4.69E-04
    4    -119.0869096944      4.76E-05
    5    -119.0869256201      6.70E-06 Convergence criterion met
 ---------------------------------------
 SCF time:  CPU 87.94 s  wall 29.75 s
 SCF   energy in the final basis set = -119.08692562
 Total energy in the final basis set = -119.08692562
 
 --------------------------------------------------------------
 
                    Orbital Energies (a.u.)
 --------------------------------------------------------------
 
 Alpha MOs
 -- Occupied --
-10.2738 -10.2617 -10.2617  -0.9223  -0.7445  -0.6997  -0.5754  -0.5473
 -0.4587  -0.4439  -0.4318  -0.4238  -0.3826
 -- Virtual --
  0.0728   0.0830   0.0843   0.0977   0.1223   0.1335   0.1345   0.1357
  0.1366   0.1681   0.1755   0.1994   0.2008   0.2536   0.2651   0.2874
  0.2894   0.2905   0.3170   0.3320   0.3388   0.3697   0.4500   0.4663
  0.4758   0.4993   0.5023   0.5177   0.5240   0.5527   0.6176   0.6272
  0.6329   0.6360   0.6533   0.6540   0.6802   0.6876   0.6877   0.7377
  0.7386   0.8037   0.8100   0.8609   0.9148   0.9192   0.9197   0.9321
  1.0290   1.0403   1.0947   1.1629   1.1648   1.2229   1.2298   1.2562
  1.2571   1.2839   1.2885   1.2994   1.2994   1.3080   1.3613   1.3926
  1.4107   1.4162   1.4278   1.4569   1.4650   1.4797   1.5208   1.5412
  1.5469   1.5628   1.6045   1.6100   1.6529   1.7217   1.7220   1.7900
  1.8555   2.3968   2.4014   2.4739   2.5330   2.5375   2.6682   2.6967
  2.7553   2.7613   2.7733   2.8022   2.8399   2.8868   2.9046   2.9083
  2.9240   3.0409   3.0434   3.0456   3.0527   3.0643   3.0681   3.1043
  3.1511   3.1696   3.2006   3.2232   3.2836   3.2950   3.2986   3.3087
  3.3142   3.3427   3.3699   3.3945   3.4086   3.4093   3.4404   3.5022
  3.5087   3.5273   3.5330   3.5868   3.5890   3.6065   3.6367   3.6703
  3.7055   3.7102   3.7378   3.7719   3.7756   3.8580   3.8742   3.8822
  3.9423   3.9577   3.9714   4.0075   4.0447   4.0824   4.0898   4.1064
  4.1293   4.1562   4.1682   4.2184   4.2431   4.2645   4.2844   4.3265
  4.3645   4.3785   4.4047   4.4418   4.4685   4.4776   4.5059   4.5247
  4.5607   4.5831   4.6633   4.7620   4.8132   4.8156   4.8745   4.8820
  4.9266   4.9347   5.0094   5.0168   5.0918   5.1175   5.1190   5.2469
  5.2486   5.2614   5.2971   5.3661   5.3900   5.4094   5.4241   5.4262
  5.4668   5.4696   5.4951   5.6155   5.6419   5.7570   5.7893   5.8270
  6.0139   6.3896   6.4203   6.4226   6.4726   6.7403  25.1731  25.4152
 25.6265
 --------------------------------------------------------------
 
 -----------------------------------------------------------------
                    Cartesian Multipole Moments
 -----------------------------------------------------------------
    Charge (ESU x 10^10)
                -0.0000
    Dipole Moment (Debye)
         X      -0.0000      Y      -0.0004      Z       0.0261
       Tot       0.0261
    Quadrupole Moments (Debye-Ang)
        XX     -23.4360     XY      -0.0000     YY     -21.0707
        XZ       0.0000     YZ       0.0170     ZZ     -21.4392
    Octopole Moments (Debye-Ang^2)
       XXX      -0.0000    XXY      -0.0150    XYY      -0.0000
       YYY       0.0569    XXZ       0.3876    XYZ      -0.0000
       YYZ       1.1802    XZZ      -0.0000    YZZ      -0.0195
       ZZZ       1.9832
    Hexadecapole Moments (Debye-Ang^3)
      XXXX    -145.0579   XXXY       0.0000   XXYY     -33.7930
      XYYY       0.0000   YYYY     -42.6705   XXXZ       0.0000
      XXYZ      -0.0209   XYYZ      -0.0000   YYYZ      -0.0348
      XXZZ     -40.3995   XYZZ       0.0000   YYZZ     -18.6250
      XZZZ       0.0000   YZZZ       0.0463   ZZZZ     -83.8521
 -----------------------------------------------------------------
Archival summary:
1\1\cn0821\SP\ProcedureUnspecified\BasisUnspecified\38\r0852400\SunApr1205:30:492020SunApr1205:30:492020\0\\#,ProcedureUnspecified,BasisUnspecified,\\0,1\C\H,1,1.09008\H,1,1.09049,2,108.151\C,1,1.50098,2,115.842,3,-130.814,0\H,4,1.08767,1,120.955,2,63.1641,0\H,4,1.09275,1,105.933,2,-172.654,0\H,4,1.09302,1,106.03,2,-60.594,0\C,1,1.50098,2,115.842,3,130.814,0\H,8,1.08767,1,120.955,2,-63.164,0\H,8,1.09275,1,105.933,2,172.654,0\H,8,1.09302,1,106.03,2,60.5939,0\\\@

 Total job time:  46.07s(wall), 127.43s(cpu) 
 Sun Apr 12 05:30:49 2020

        *************************************************************
        *                                                           *
        *  Thank you very much for using Q-Chem.  Have a nice day.  *
        *                                                           *
        *************************************************************


