                  Welcome to Q-Chem
     A Quantum Leap Into The Future Of Chemistry


 Q-Chem 5.2 (devel), Q-Chem, Inc., Pleasanton, CA (2019)

 Yihan Shao,  Zhengting Gan,  E. Epifanovsky,  A. T. B. Gilbert,  M. Wormit,  
 J. Kussmann,  A. W. Lange,  A. Behn,  Jia Deng,  Xintian Feng,  D. Ghosh,  
 M. Goldey,  P. R. Horn,  L. D. Jacobson,  I. Kaliman,  T. Kus,  A. Landau,  
 Jie Liu,  E. I. Proynov,  R. M. Richard,  R. P. Steele,  E. J. Sundstrom,  
 H. L. Woodcock III,  P. M. Zimmerman,  D. Zuev,  B. Alam,  B. Albrecht,  
 E. Alguire,  S. A. Baeppler,  D. Barton,  Z. Benda,  Y. A. Bernard,  
 E. J. Berquist,  K. B. Bravaya,  H. Burton,  K. Carter-Fenk,  D. Casanova,  
 Chun-Min Chang,  Yunqing Chen,  A. Chien,  K. D. Closser,  M. P. Coons,  
 S. Coriani,  S. Dasgupta,  A. L. Dempwolff,  M. Diedenhofen,  Hainam Do,  
 R. G. Edgar,  Po-Tung Fang,  S. Faraji,  S. Fatehi,  Qingguo Feng,  
 J. Fosso-Tande,  J. Gayvert,  Qinghui Ge,  A. Ghysels,  G. Gidofalvi,  
 J. Gomes,  J. Gonthier,  A. Gunina,  D. Hait,  M. W. D. Hanson-Heine,  
 P. H. P. Harbach,  A. W. Hauser,  M. F. Herbst,  J. E. Herr,  
 E. G. Hohenstein,  Z. C. Holden,  Kerwin Hui,  B. C. Huynh,  T.-C. Jagau,  
 Hyunjun Ji,  B. Kaduk,  K. Khistyaev,  Jaehoon Kim,  P. Klunzinger,  K. Koh,  
 D. Kosenkov,  L. Koulias,  T. Kowalczyk,  C. M. Krauter,  A. Kunitsa,  
 Ka Un Lao,  A. Laurent,  K. V. Lawler,  Joonho Lee,  D. Lefrancois,  
 S. Lehtola,  D. S. Levine,  Yi-Pei Li,  You-Sheng Lin,  Fenglai Liu,  
 Kuan-Yu Liu,  E. Livshits,  M. Loipersberger,  A. Luenser,  P. Manohar,  
 E. Mansoor,  S. F. Manzer,  Shan-Ping Mao,  Yuezhi Mao,  N. Mardirossian,  
 A. V. Marenich,  T. Markovich,  L. A. Martinez-Martinez,  S. A. Maurer,  
 N. J. Mayhall,  S. C. McKenzie,  J.-M. Mewes,  P. Morgante,  A. F. Morrison,  
 J. W. Mullinax,  K. Nanda,  T. S. Nguyen-Beck,  R. Olivares-Amaya,  
 J. A. Parkhill,  S. K. Paul,  Zheng Pei,  T. M. Perrine,  F. Plasser,  
 P. Pokhilko,  S. Prager,  A. Prociuk,  E. Ramos,  B. Rana,  D. R. Rehn,  
 F. Rob,  M. Scheurer,  M. Schneider,  N. Sergueev,  S. M. Sharada,  
 S. Sharma,  D. W. Small,  T. Stauch,  C. J. Stein,  T. Stein,  Yu-Chuan Su,  
 S. P. Veccham,  A. J. W. Thom,  A. Tkatchenko,  T. Tsuchimochi,  
 N. M. Tubman,  L. Vogt,  M. L. Vidal,  O. Vydrov,  M. A. Watson,  J. Wenzel,  
 M. de Wergifosse,  T. A. Wesolowski,  A. White,  J. Witte,  A. Yamada,  
 Jun Yang,  K. Yao,  S. Yeganeh,  S. R. Yost,  Zhi-Qiang You,  A. Zech,  
 Igor Ying Zhang,  Xing Zhang,  Yan Zhao,  Ying Zhu,  B. R. Brooks,  
 G. K. L. Chan,  C. J. Cramer,  M. S. Gordon,  W. J. Hehre,  A. Klamt,  
 M. W. Schmidt,  C. D. Sherrill,  D. G. Truhlar,  A. Aspuru-Guzik,  R. Baer,  
 A. T. Bell,  N. A. Besley,  Jeng-Da Chai,  A. E. DePrince, III,  
 R. A. DiStasio Jr.,  A. Dreuw,  B. D. Dunietz,  T. R. Furlani,  
 Chao-Ping Hsu,  Yousung Jung,  Jing Kong,  D. S. Lambrecht,  WanZhen Liang,  
 C. Ochsenfeld,  V. A. Rassolov,  L. V. Slipchenko,  J. E. Subotnik,  
 T. Van Voorhis,  J. M. Herbert,  A. I. Krylov,  P. M. W. Gill,  M. Head-Gordon

 Contributors to earlier versions of Q-Chem not listed above: 
 R. D. Adamson,  B. Austin,  J. Baker,  G. J. O. Beran,  K. Brandhorst,  
 S. T. Brown,  E. F. C. Byrd,  A. K. Chakraborty,  C.-L. Cheng,  
 Siu Hung Chien,  D. M. Chipman,  D. L. Crittenden,  H. Dachsel,  
 R. J. Doerksen,  A. D. Dutoi,  L. Fusti-Molnar,  W. A. Goddard III,  
 A. Golubeva-Zadorozhnaya,  S. R. Gwaltney,  G. Hawkins,  A. Heyden,  
 S. Hirata,  G. Kedziora,  F. J. Keil,  C. Kelley,  Jihan Kim,  R. A. King,  
 R. Z. Khaliullin,  P. P. Korambath,  W. Kurlancheek,  A. M. Lee,  M. S. Lee,  
 S. V. Levchenko,  Ching Yeh Lin,  D. Liotard,  R. C. Lochan,  I. Lotan,  
 P. E. Maslen,  N. Nair,  D. P. O'Neill,  D. Neuhauser,  E. Neuscamman,  
 C. M. Oana,  R. Olson,  B. Peters,  R. Peverati,  P. A. Pieniazek,  
 Y. M. Rhee,  J. Ritchie,  M. A. Rohrdanz,  E. Rosta,  N. J. Russ,  
 H. F. Schaefer III,  N. E. Schultz,  N. Shenvi,  A. C. Simmonett,  A. Sodt,  
 D. Stuck,  K. S. Thanthiriwatte,  V. Vanovschi,  Tao Wang,  A. Warshel,  
 C. F. Williams,  Q. Wu,  X. Xu,  W. Zhang

 Please cite Q-Chem as follows:
 Y. Shao et al., Mol. Phys. 113, 184-215 (2015)
 DOI: 10.1080/00268976.2014.952696

 Q-Chem 5.2.2 for Intel X86 EM64T Linux

 Parts of Q-Chem use Armadillo 9.800.1 (Horizon Scraper).
 http://arma.sourceforge.net/

 Q-Chem begins on Sun Apr 12 07:09:15 2020  

Host: cn0821
0

     Scratch files written to /tmp/ypli/6721342.srvc1/qchem184688//
Warning:  Did not find "$end" marker in "$molecule" section

Checking the input file for inconsistencies... 	...done.

--------------------------------------------------------------
User input:
--------------------------------------------------------------
$rem
   JOBTYPE  sp
   EXCHANGE   omegaB97X-D
   BASIS   6-311+G(2df,2pd)
   max_scf_cycles   250
   geom_opt_max_cycles   1500
   basis2 6-31G*
   scf_algorithm rca_diis
   SYM_IGNORE  TRUE
   print_input   true
   geom_opt_dmax   80
   pop_mulliken false
   XC_GRID 000075000302
$end

$molecule
0 1
C       1.2443551286     0.0000900042     0.2159724155
C       -0.0000003293     0.0005453771     -0.6119143812
H       1.3950963420     -0.8344038547     0.9080379883
H       1.3930713201     0.8345496975     0.9084463749
H       2.2119483956     -0.0007417541     -0.2928440122
C       -1.2443558163     0.0000901142     0.2159726295
H       0.0000001934     -0.8753840582     -1.2626915798
H       -0.0000004267     0.8758496831     -1.2635746676
H       -1.3950953229     -0.8344035988     0.9080386852
H       -2.2119481472     -0.0007405586     -0.2928453284
H       -1.3930713979     0.8345496143     0.9084468948
--------------------------------------------------------------
 ----------------------------------------------------------------
             Standard Nuclear Orientation (Angstroms)
    I     Atom           X                Y                Z
 ----------------------------------------------------------------
    1      C       1.2443551286     0.0000900042     0.2159724155
    2      C      -0.0000003293     0.0005453771    -0.6119143812
    3      H       1.3950963420    -0.8344038547     0.9080379883
    4      H       1.3930713201     0.8345496975     0.9084463749
    5      H       2.2119483956    -0.0007417541    -0.2928440122
    6      C      -1.2443558163     0.0000901142     0.2159726295
    7      H       0.0000001934    -0.8753840582    -1.2626915798
    8      H      -0.0000004267     0.8758496831    -1.2635746676
    9      H      -1.3950953229    -0.8344035988     0.9080386852
   10      H      -2.2119481472    -0.0007405586    -0.2928453284
   11      H      -1.3930713979     0.8345496143     0.9084468948
 ----------------------------------------------------------------
 Nuclear Repulsion Energy =          83.07507271 hartrees
 There are       13 alpha and       13 beta electrons
 Requested basis set is 6-311+G(2df,2pd)
 There are 72 shells and 214 basis functions

 Total QAlloc Memory Limit   2000 MB
 Mega-Array Size       188 MB
 MEM_STATIC part       192 MB

                       Distance Matrix (Angstroms)
             C (  1)   C (  2)   H (  3)   H (  4)   H (  5)   C (  6)
   C (  2)  1.494596
   H (  3)  1.094558  2.225689
   H (  4)  1.094513  2.224345  1.668955
   H (  5)  1.093221  2.234843  1.674622  1.676714
   C (  6)  2.488711  1.494596  2.853426  2.851642  3.493556
   H (  7)  2.121632  1.091221  2.580705  3.094893  2.568719  2.121633
   H (  8)  2.122366  1.091246  3.096315  2.580703  2.569718  2.122366
   H (  9)  2.853425  2.225688  2.790192  3.249504  3.892027  1.094558
   H ( 10)  3.493555  2.234842  3.892028  3.890627  4.423897  1.093221
   H ( 11)  2.851642  2.224345  3.249505  2.786143  3.890627  1.094513
             H (  7)   H (  8)   H (  9)   H ( 10)
   H (  8)  1.751234
   H (  9)  2.580705  3.096314
   H ( 10)  2.568719  2.569716  1.674624
   H ( 11)  3.094893  2.580703  1.668954  1.676715
 
 A cutoff of  1.0D-09 yielded   2524 shell pairs
 There are     22494 function pairs (     27663 Cartesian)
 Smallest overlap matrix eigenvalue = 8.30E-05

 Scale SEOQF with 1.000000e-01/1.000000e-01/1.000000e-01

 Standard Electronic Orientation quadrupole field applied
 Nucleus-field energy     =     0.0000000006 hartrees
 Requested basis set is 6-31G(d)
 There are 28 shells and 58 basis functions
 A cutoff of  1.0D-09 yielded    402 shell pairs
 There are      1773 function pairs (      1968 Cartesian)
 Smallest overlap matrix eigenvalue = 6.98E-03
 Guess from superposition of atomic densities
 Warning:  Energy on first SCF cycle will be non-variational
 SAD guess density has 26.000000 electrons
 Long-range K will be added via erf
 Coulomb attenuation parameter = 0.2 bohr**(-1)
 A restricted hybrid HF-DFT SCF calculation will be
 performed using Relaxed Constraint Minimization + Pulay DIIS
 Exchange:     0.2220 Hartree-Fock + 1.0000 wB97X-D + LR-HF
 Correlation:  1.0000 wB97X-D
 Using Euler-Maclaurin-Lebedev (75,302) quadrature formula
 Dispersion:   Grimme D
 SCF converges when DIIS error is below 1.0E-04
 using 3 threads for integral computing
 -------------------------------------------------------
 OpenMP Integral computing Module                
 Release: version 1.0, May 2013, Q-Chem Inc. Pittsburgh 
 -------------------------------------------------------
 using 3 threads for integral computing
 -------------------------------------------------------
 OpenMP Integral computing Module                
 Release: version 1.0, May 2013, Q-Chem Inc. Pittsburgh 
 -------------------------------------------------------
 ---------------------------------------
  Cycle       Energy         DIIS Error
 ---------------------------------------
    1    -119.6869723565      1.03E-01
    2    -119.0527680569      9.13E-03
    3    -119.0738923702      2.37E-03
    4    -119.0887785206      1.61E-03
    5    -119.0894026309      2.26E-04 Done RCA. Switching to DIIS
    6    -119.0898886502      1.66E-04
    7    -119.0899007625      4.53E-06 Convergence criterion met
 ---------------------------------------
 SCF time:  CPU 33.05 s  wall 11.41 s
 SCF   energy in the small basis set = -119.08990076
 Total energy in the small basis set = -119.08990076
 ----------------------------------------------------
  Cycle       Energy    
 ----------------------------------------------------
    1     -16.5515184117     -1.66E+01
 Long-range K will be added via erf
 Coulomb attenuation parameter = 0.2 bohr**(-1)
 A restricted hybrid HF-DFT SCF calculation will be
 performed using Relaxed Constraint Minimization + Pulay DIIS
 Exchange:     0.2220 Hartree-Fock + 1.0000 wB97X-D + LR-HF
 Correlation:  1.0000 wB97X-D
 Using Euler-Maclaurin-Lebedev (75,302) quadrature formula
 Dispersion:   Grimme D
 SCF converges when DIIS error is below 1.0E-05
 Basis2 calculation detected. Using small basis as guess for larger.
 SCFMinFind is unable to tell whether the solution found is close.
 Resetting ReadMinima to 0 and attempting to follow guess.
 SCFMinFind following SCF Guess.
 using 3 threads for integral computing
 -------------------------------------------------------
 OpenMP Integral computing Module                
 Release: version 1.0, May 2013, Q-Chem Inc. Pittsburgh 
 -------------------------------------------------------
 using 3 threads for integral computing
 -------------------------------------------------------
 OpenMP Integral computing Module                
 Release: version 1.0, May 2013, Q-Chem Inc. Pittsburgh 
 -------------------------------------------------------
 ---------------------------------------
  Cycle       Energy         DIIS Error
 ---------------------------------------
    1    -119.1100968728      4.21E-03
    2    -119.1321042029      5.82E-04 Done RCA. Switching to DIIS
    3    -119.1328737725      4.11E-04
    4    -119.1337919737      4.94E-05
    5    -119.1338087733      9.88E-06 Convergence criterion met
 ---------------------------------------
 SCF time:  CPU 83.01 s  wall 28.13 s
 SCF   energy in the final basis set = -119.13380877
 Total energy in the final basis set = -119.13380877
 
 --------------------------------------------------------------
 
                    Orbital Energies (a.u.)
 --------------------------------------------------------------
 
 Alpha MOs
 -- Occupied --
-10.2791 -10.2638 -10.2638  -0.8871  -0.7821  -0.6909  -0.5423  -0.5263
 -0.4918  -0.4498  -0.4236  -0.4198  -0.4012
 -- Virtual --
  0.0674   0.0829   0.0907   0.1013   0.1266   0.1281   0.1352   0.1421
  0.1471   0.1718   0.1720   0.1937   0.2359   0.2372   0.2375   0.2695
  0.2820   0.2862   0.3021   0.3168   0.3316   0.3710   0.4589   0.4643
  0.4796   0.5151   0.5156   0.5302   0.5653   0.5661   0.5743   0.5774
  0.6314   0.6335   0.6481   0.6523   0.6533   0.6543   0.7124   0.7255
  0.7314   0.7680   0.8235   0.8420   0.8527   0.8799   0.8958   0.9845
  1.0164   1.0386   1.0544   1.1259   1.1347   1.1907   1.2170   1.2204
  1.2413   1.2518   1.2542   1.2846   1.2896   1.3285   1.3345   1.3398
  1.3646   1.3992   1.4048   1.4546   1.4657   1.4743   1.4796   1.5028
  1.5363   1.5903   1.6138   1.6283   1.6557   1.6858   1.7072   1.7561
  1.7981   2.3710   2.4157   2.4607   2.4648   2.5316   2.5431   2.5801
  2.5832   2.7200   2.7994   2.8127   2.8199   2.8780   2.8835   2.9263
  2.9345   2.9351   2.9812   3.0390   3.0943   3.1045   3.1348   3.1449
  3.1452   3.1506   3.1897   3.2189   3.2374   3.2537   3.2578   3.3033
  3.3421   3.3554   3.3998   3.4003   3.4185   3.4208   3.4339   3.4346
  3.4744   3.4763   3.5026   3.5439   3.5526   3.5730   3.5774   3.5993
  3.6121   3.6242   3.6408   3.6433   3.7461   3.7498   3.8015   3.8519
  3.8845   3.9014   3.9115   3.9596   3.9816   4.0334   4.0729   4.0779
  4.0897   4.0976   4.1795   4.1900   4.1968   4.2184   4.2322   4.2590
  4.2712   4.3063   4.3466   4.3719   4.4045   4.4201   4.4227   4.4232
  4.5170   4.5722   4.5813   4.6090   4.6557   4.7336   4.7669   4.8223
  4.8416   4.9211   4.9710   4.9977   5.0020   5.0418   5.0603   5.0662
  5.1640   5.1747   5.2109   5.2609   5.2926   5.3013   5.3948   5.4889
  5.4919   5.5069   5.5367   5.5428   5.5625   5.6465   5.6715   5.7917
  5.9788   6.4163   6.4463   6.4478   6.4727   6.4745  25.2401  25.4423
 25.4575
 --------------------------------------------------------------
 
 -----------------------------------------------------------------
                    Cartesian Multipole Moments
 -----------------------------------------------------------------
    Charge (ESU x 10^10)
                 0.0000
    Dipole Moment (Debye)
         X       0.0000      Y      -0.0015      Z      -0.0122
       Tot       0.0123
    Quadrupole Moments (Debye-Ang)
        XX     -21.3606     XY      -0.0000     YY     -21.7762
        XZ       0.0000     YZ       0.0004     ZZ     -21.7118
    Octopole Moments (Debye-Ang^2)
       XXX       0.0000    XXY      -0.0293    XYY       0.0000
       YYY      -0.0097    XXZ       1.0423    XYZ       0.0000
       YYZ       0.4388    XZZ      -0.0000    YZZ       0.0016
       ZZZ       1.1239
    Hexadecapole Moments (Debye-Ang^3)
      XXXX    -198.4718   XXXY      -0.0000   XXYY     -42.7152
      XYYY       0.0000   YYYY     -43.9206   XXXZ       0.0000
      XXYZ      -0.0038   XYYZ       0.0000   YYYZ       0.0053
      XXZZ     -45.0946   XYZZ       0.0000   YYZZ     -16.9526
      XZZZ      -0.0000   YZZZ       0.0012   ZZZZ     -71.2351
 -----------------------------------------------------------------
Archival summary:
1\1\cn0821\SP\ProcedureUnspecified\BasisUnspecified\38\r0852400\SunApr1207:09:592020SunApr1207:09:592020\0\\#,ProcedureUnspecified,BasisUnspecified,\\0,1\C\H,1,1.09122\H,1,1.09125,2,106.722\C,1,1.4946,2,109.275,3,-118.114,0\H,4,1.09322,1,118.626,2,58.2237,0\H,4,1.09451,1,117.603,2,178.893,0\H,4,1.09456,1,117.718,2,-62.2989,0\C,1,1.4946,2,109.275,3,118.114,0\H,8,1.09322,1,118.626,2,-58.2238,0\H,8,1.09451,1,117.603,2,-178.893,0\H,8,1.09456,1,117.718,2,62.299,0\\\@

 Total job time:  43.72s(wall), 121.15s(cpu) 
 Sun Apr 12 07:09:59 2020

        *************************************************************
        *                                                           *
        *  Thank you very much for using Q-Chem.  Have a nice day.  *
        *                                                           *
        *************************************************************


