                  Welcome to Q-Chem
     A Quantum Leap Into The Future Of Chemistry


 Q-Chem 5.2 (devel), Q-Chem, Inc., Pleasanton, CA (2019)

 Yihan Shao,  Zhengting Gan,  E. Epifanovsky,  A. T. B. Gilbert,  M. Wormit,  
 J. Kussmann,  A. W. Lange,  A. Behn,  Jia Deng,  Xintian Feng,  D. Ghosh,  
 M. Goldey,  P. R. Horn,  L. D. Jacobson,  I. Kaliman,  T. Kus,  A. Landau,  
 Jie Liu,  E. I. Proynov,  R. M. Richard,  R. P. Steele,  E. J. Sundstrom,  
 H. L. Woodcock III,  P. M. Zimmerman,  D. Zuev,  B. Alam,  B. Albrecht,  
 E. Alguire,  S. A. Baeppler,  D. Barton,  Z. Benda,  Y. A. Bernard,  
 E. J. Berquist,  K. B. Bravaya,  H. Burton,  K. Carter-Fenk,  D. Casanova,  
 Chun-Min Chang,  Yunqing Chen,  A. Chien,  K. D. Closser,  M. P. Coons,  
 S. Coriani,  S. Dasgupta,  A. L. Dempwolff,  M. Diedenhofen,  Hainam Do,  
 R. G. Edgar,  Po-Tung Fang,  S. Faraji,  S. Fatehi,  Qingguo Feng,  
 J. Fosso-Tande,  J. Gayvert,  Qinghui Ge,  A. Ghysels,  G. Gidofalvi,  
 J. Gomes,  J. Gonthier,  A. Gunina,  D. Hait,  M. W. D. Hanson-Heine,  
 P. H. P. Harbach,  A. W. Hauser,  M. F. Herbst,  J. E. Herr,  
 E. G. Hohenstein,  Z. C. Holden,  Kerwin Hui,  B. C. Huynh,  T.-C. Jagau,  
 Hyunjun Ji,  B. Kaduk,  K. Khistyaev,  Jaehoon Kim,  P. Klunzinger,  K. Koh,  
 D. Kosenkov,  L. Koulias,  T. Kowalczyk,  C. M. Krauter,  A. Kunitsa,  
 Ka Un Lao,  A. Laurent,  K. V. Lawler,  Joonho Lee,  D. Lefrancois,  
 S. Lehtola,  D. S. Levine,  Yi-Pei Li,  You-Sheng Lin,  Fenglai Liu,  
 Kuan-Yu Liu,  E. Livshits,  M. Loipersberger,  A. Luenser,  P. Manohar,  
 E. Mansoor,  S. F. Manzer,  Shan-Ping Mao,  Yuezhi Mao,  N. Mardirossian,  
 A. V. Marenich,  T. Markovich,  L. A. Martinez-Martinez,  S. A. Maurer,  
 N. J. Mayhall,  S. C. McKenzie,  J.-M. Mewes,  P. Morgante,  A. F. Morrison,  
 J. W. Mullinax,  K. Nanda,  T. S. Nguyen-Beck,  R. Olivares-Amaya,  
 J. A. Parkhill,  S. K. Paul,  Zheng Pei,  T. M. Perrine,  F. Plasser,  
 P. Pokhilko,  S. Prager,  A. Prociuk,  E. Ramos,  B. Rana,  D. R. Rehn,  
 F. Rob,  M. Scheurer,  M. Schneider,  N. Sergueev,  S. M. Sharada,  
 S. Sharma,  D. W. Small,  T. Stauch,  C. J. Stein,  T. Stein,  Yu-Chuan Su,  
 S. P. Veccham,  A. J. W. Thom,  A. Tkatchenko,  T. Tsuchimochi,  
 N. M. Tubman,  L. Vogt,  M. L. Vidal,  O. Vydrov,  M. A. Watson,  J. Wenzel,  
 M. de Wergifosse,  T. A. Wesolowski,  A. White,  J. Witte,  A. Yamada,  
 Jun Yang,  K. Yao,  S. Yeganeh,  S. R. Yost,  Zhi-Qiang You,  A. Zech,  
 Igor Ying Zhang,  Xing Zhang,  Yan Zhao,  Ying Zhu,  B. R. Brooks,  
 G. K. L. Chan,  C. J. Cramer,  M. S. Gordon,  W. J. Hehre,  A. Klamt,  
 M. W. Schmidt,  C. D. Sherrill,  D. G. Truhlar,  A. Aspuru-Guzik,  R. Baer,  
 A. T. Bell,  N. A. Besley,  Jeng-Da Chai,  A. E. DePrince, III,  
 R. A. DiStasio Jr.,  A. Dreuw,  B. D. Dunietz,  T. R. Furlani,  
 Chao-Ping Hsu,  Yousung Jung,  Jing Kong,  D. S. Lambrecht,  WanZhen Liang,  
 C. Ochsenfeld,  V. A. Rassolov,  L. V. Slipchenko,  J. E. Subotnik,  
 T. Van Voorhis,  J. M. Herbert,  A. I. Krylov,  P. M. W. Gill,  M. Head-Gordon

 Contributors to earlier versions of Q-Chem not listed above: 
 R. D. Adamson,  B. Austin,  J. Baker,  G. J. O. Beran,  K. Brandhorst,  
 S. T. Brown,  E. F. C. Byrd,  A. K. Chakraborty,  C.-L. Cheng,  
 Siu Hung Chien,  D. M. Chipman,  D. L. Crittenden,  H. Dachsel,  
 R. J. Doerksen,  A. D. Dutoi,  L. Fusti-Molnar,  W. A. Goddard III,  
 A. Golubeva-Zadorozhnaya,  S. R. Gwaltney,  G. Hawkins,  A. Heyden,  
 S. Hirata,  G. Kedziora,  F. J. Keil,  C. Kelley,  Jihan Kim,  R. A. King,  
 R. Z. Khaliullin,  P. P. Korambath,  W. Kurlancheek,  A. M. Lee,  M. S. Lee,  
 S. V. Levchenko,  Ching Yeh Lin,  D. Liotard,  R. C. Lochan,  I. Lotan,  
 P. E. Maslen,  N. Nair,  D. P. O'Neill,  D. Neuhauser,  E. Neuscamman,  
 C. M. Oana,  R. Olson,  B. Peters,  R. Peverati,  P. A. Pieniazek,  
 Y. M. Rhee,  J. Ritchie,  M. A. Rohrdanz,  E. Rosta,  N. J. Russ,  
 H. F. Schaefer III,  N. E. Schultz,  N. Shenvi,  A. C. Simmonett,  A. Sodt,  
 D. Stuck,  K. S. Thanthiriwatte,  V. Vanovschi,  Tao Wang,  A. Warshel,  
 C. F. Williams,  Q. Wu,  X. Xu,  W. Zhang

 Please cite Q-Chem as follows:
 Y. Shao et al., Mol. Phys. 113, 184-215 (2015)
 DOI: 10.1080/00268976.2014.952696

 Q-Chem 5.2.2 for Intel X86 EM64T Linux

 Parts of Q-Chem use Armadillo 9.800.1 (Horizon Scraper).
 http://arma.sourceforge.net/

 Q-Chem begins on Sun Apr 12 07:18:11 2020  

Host: cn0821
0

     Scratch files written to /tmp/ypli/6721342.srvc1/qchem186051//
Warning:  Did not find "$end" marker in "$molecule" section

Checking the input file for inconsistencies... 	...done.

--------------------------------------------------------------
User input:
--------------------------------------------------------------
$rem
   JOBTYPE  sp
   EXCHANGE   omegaB97X-D
   BASIS   6-311+G(2df,2pd)
   max_scf_cycles   250
   geom_opt_max_cycles   1500
   basis2 6-31G*
   scf_algorithm rca_diis
   SYM_IGNORE  TRUE
   print_input   true
   geom_opt_dmax   80
   pop_mulliken false
   XC_GRID 000075000302
$end

$molecule
0 1
C       1.2509881131     -0.0310357287     0.2705434033
C       -0.0168987342     0.0029014599     -0.5893299131
H       1.1564431315     -0.9276756730     0.8740407306
H       1.4516153872     0.9103300609     0.7940640417
H       2.1716680003     0.1596540950     -0.2872669949
C       -1.2824378653     0.0387622773     0.2441173831
H       -0.0222161523     -0.8719154772     -1.2438705008
H       0.0496114428     0.8739356819     -1.2455555022
H       -1.4549057668     -0.8061895177     0.9250329585
H       -2.1364217748     -0.1640676197     -0.3982723141
H       -1.1674458421     0.8153011072     0.9975417269
--------------------------------------------------------------
 ----------------------------------------------------------------
             Standard Nuclear Orientation (Angstroms)
    I     Atom           X                Y                Z
 ----------------------------------------------------------------
    1      C       1.2509881131    -0.0310357287     0.2705434033
    2      C      -0.0168987342     0.0029014599    -0.5893299131
    3      H       1.1564431315    -0.9276756730     0.8740407306
    4      H       1.4516153872     0.9103300609     0.7940640417
    5      H       2.1716680003     0.1596540950    -0.2872669949
    6      C      -1.2824378653     0.0387622773     0.2441173831
    7      H      -0.0222161523    -0.8719154772    -1.2438705008
    8      H       0.0496114428     0.8739356819    -1.2455555022
    9      H      -1.4549057668    -0.8061895177     0.9250329585
   10      H      -2.1364217748    -0.1640676197    -0.3982723141
   11      H      -1.1674458421     0.8153011072     0.9975417269
 ----------------------------------------------------------------
 Nuclear Repulsion Energy =          82.79933140 hartrees
 There are       13 alpha and       13 beta electrons
 Requested basis set is 6-311+G(2df,2pd)
 There are 72 shells and 214 basis functions

 Total QAlloc Memory Limit   2000 MB
 Mega-Array Size       188 MB
 MEM_STATIC part       192 MB

                       Distance Matrix (Angstroms)
             C (  1)   C (  2)   H (  3)   H (  4)   H (  5)   C (  6)
   C (  2)  1.532342
   H (  3)  1.084947  2.093838
   H (  4)  1.095671  2.212180  1.863273
   H (  5)  1.093237  2.214867  1.887221  1.500422
   C (  6)  2.534525  1.515754  2.697952  2.921835  3.496832
   H (  7)  2.149785  1.092592  2.424437  3.082492  2.606214  2.152115
   H (  8)  2.135611  1.092592  2.993922  2.475275  2.435496  2.165871
   H (  9)  2.889824  2.239595  2.614671  3.378085  3.943927  1.098788
   H ( 10)  3.455367  2.134657  3.611764  3.930650  4.321661  1.087701
   H ( 11)  2.663388  2.121771  2.907521  2.628672  3.637346  1.088064
             H (  7)   H (  8)   H (  9)   H ( 10)
   H (  8)  1.747329
   H (  9)  2.600204  3.130151
   H ( 10)  2.384523  2.563997  1.621087
   H ( 11)  3.030211  2.552675  1.648370  1.961218
 
 A cutoff of  1.0D-09 yielded   2534 shell pairs
 There are     22547 function pairs (     27723 Cartesian)
 Smallest overlap matrix eigenvalue = 8.78E-05

 Scale SEOQF with 1.000000e-01/1.000000e-01/1.000000e-01

 Standard Electronic Orientation quadrupole field applied
 Nucleus-field energy     =     0.0000000006 hartrees
 Requested basis set is 6-31G(d)
 There are 28 shells and 58 basis functions
 A cutoff of  1.0D-09 yielded    402 shell pairs
 There are      1773 function pairs (      1968 Cartesian)
 Smallest overlap matrix eigenvalue = 6.85E-03
 Guess from superposition of atomic densities
 Warning:  Energy on first SCF cycle will be non-variational
 SAD guess density has 26.000000 electrons
 Long-range K will be added via erf
 Coulomb attenuation parameter = 0.2 bohr**(-1)
 A restricted hybrid HF-DFT SCF calculation will be
 performed using Relaxed Constraint Minimization + Pulay DIIS
 Exchange:     0.2220 Hartree-Fock + 1.0000 wB97X-D + LR-HF
 Correlation:  1.0000 wB97X-D
 Using Euler-Maclaurin-Lebedev (75,302) quadrature formula
 Dispersion:   Grimme D
 SCF converges when DIIS error is below 1.0E-04
 using 3 threads for integral computing
 -------------------------------------------------------
 OpenMP Integral computing Module                
 Release: version 1.0, May 2013, Q-Chem Inc. Pittsburgh 
 -------------------------------------------------------
 using 3 threads for integral computing
 -------------------------------------------------------
 OpenMP Integral computing Module                
 Release: version 1.0, May 2013, Q-Chem Inc. Pittsburgh 
 -------------------------------------------------------
 ---------------------------------------
  Cycle       Energy         DIIS Error
 ---------------------------------------
    1    -119.6357398160      1.01E-01
    2    -119.0318115469      9.26E-03
    3    -119.0542098826      2.52E-03
    4    -119.0692345447      1.72E-03
    5    -119.0699671371      2.73E-04 Done RCA. Switching to DIIS
    6    -119.0705117597      2.00E-04
    7    -119.0705293443      6.22E-06 Convergence criterion met
 ---------------------------------------
 SCF time:  CPU 32.98 s  wall 11.41 s
 SCF   energy in the small basis set = -119.07052934
 Total energy in the small basis set = -119.07052934
 ----------------------------------------------------
  Cycle       Energy    
 ----------------------------------------------------
    1     -16.5352302787     -1.65E+01
 Long-range K will be added via erf
 Coulomb attenuation parameter = 0.2 bohr**(-1)
 A restricted hybrid HF-DFT SCF calculation will be
 performed using Relaxed Constraint Minimization + Pulay DIIS
 Exchange:     0.2220 Hartree-Fock + 1.0000 wB97X-D + LR-HF
 Correlation:  1.0000 wB97X-D
 Using Euler-Maclaurin-Lebedev (75,302) quadrature formula
 Dispersion:   Grimme D
 SCF converges when DIIS error is below 1.0E-05
 Basis2 calculation detected. Using small basis as guess for larger.
 SCFMinFind is unable to tell whether the solution found is close.
 Resetting ReadMinima to 0 and attempting to follow guess.
 SCFMinFind following SCF Guess.
 using 3 threads for integral computing
 -------------------------------------------------------
 OpenMP Integral computing Module                
 Release: version 1.0, May 2013, Q-Chem Inc. Pittsburgh 
 -------------------------------------------------------
 using 3 threads for integral computing
 -------------------------------------------------------
 OpenMP Integral computing Module                
 Release: version 1.0, May 2013, Q-Chem Inc. Pittsburgh 
 -------------------------------------------------------
 ---------------------------------------
  Cycle       Energy         DIIS Error
 ---------------------------------------
    1    -119.0912976767      4.21E-03
    2    -119.1132615870      6.22E-04 Done RCA. Switching to DIIS
    3    -119.1141339157      4.44E-04
    4    -119.1152152455      4.64E-05
    5    -119.1152310015      1.05E-05
    6    -119.1152317850      4.05E-06 Convergence criterion met
 ---------------------------------------
 SCF time:  CPU 98.88 s  wall 33.46 s
 SCF   energy in the final basis set = -119.11523178
 Total energy in the final basis set = -119.11523178
 
 --------------------------------------------------------------
 
                    Orbital Energies (a.u.)
 --------------------------------------------------------------
 
 Alpha MOs
 -- Occupied --
-10.2745 -10.2659 -10.2657  -0.8829  -0.7810  -0.6810  -0.5539  -0.5409
 -0.4825  -0.4485  -0.4329  -0.4092  -0.3833
 -- Virtual --
  0.0686   0.0841   0.0905   0.0993   0.1222   0.1306   0.1328   0.1415
  0.1428   0.1687   0.1738   0.1937   0.2136   0.2295   0.2545   0.2638
  0.2776   0.2911   0.3070   0.3158   0.3334   0.3468   0.4597   0.4645
  0.4740   0.5062   0.5204   0.5235   0.5463   0.5602   0.5780   0.5949
  0.6106   0.6304   0.6324   0.6403   0.6642   0.6754   0.7111   0.7201
  0.7349   0.7719   0.7965   0.8556   0.8713   0.8755   0.8997   0.9332
  0.9747   1.0393   1.0545   1.1225   1.1418   1.1769   1.1996   1.2124
  1.2425   1.2547   1.2628   1.2701   1.2928   1.3179   1.3291   1.3598
  1.3774   1.3858   1.4337   1.4447   1.4558   1.4707   1.4805   1.4947
  1.5120   1.5718   1.6102   1.6234   1.6331   1.6501   1.6834   1.6993
  1.7723   2.4051   2.4690   2.4807   2.5120   2.5506   2.5556   2.6051
  2.6413   2.7033   2.7868   2.8173   2.8304   2.8771   2.8801   2.9213
  2.9327   2.9518   2.9847   3.0087   3.0371   3.0543   3.0740   3.1131
  3.1326   3.1579   3.1731   3.1941   3.2055   3.2358   3.2507   3.2890
  3.3045   3.3337   3.3472   3.3739   3.3975   3.4105   3.4433   3.4631
  3.4793   3.5045   3.5289   3.5491   3.5713   3.5939   3.5983   3.6122
  3.6329   3.6422   3.6626   3.6943   3.7270   3.7476   3.8065   3.8249
  3.8734   3.8913   3.8995   3.9358   3.9457   3.9618   3.9839   4.0196
  4.0572   4.0930   4.1076   4.1397   4.1697   4.1901   4.2122   4.2299
  4.2477   4.2547   4.3090   4.3535   4.3933   4.4025   4.4310   4.4596
  4.5029   4.5729   4.6234   4.6301   4.6855   4.7138   4.7487   4.8330
  4.8826   4.9457   4.9685   4.9798   4.9874   5.0184   5.0700   5.0920
  5.1084   5.2195   5.2369   5.2801   5.3137   5.3360   5.3856   5.4228
  5.4747   5.4889   5.5395   5.6218   5.6840   5.7248   5.7629   5.8180
  5.9710   6.3148   6.3462   6.3923   6.4775   6.4894  25.2039  25.4323
 25.4553
 --------------------------------------------------------------
 
 -----------------------------------------------------------------
                    Cartesian Multipole Moments
 -----------------------------------------------------------------
    Charge (ESU x 10^10)
                 0.0000
    Dipole Moment (Debye)
         X       0.0646      Y      -0.0165      Z      -0.0604
       Tot       0.0900
    Quadrupole Moments (Debye-Ang)
        XX     -22.1104     XY       1.4636     YY     -21.4700
        XZ      -0.0591     YZ      -0.0253     ZZ     -21.9701
    Octopole Moments (Debye-Ang^2)
       XXX       1.3124    XXY       0.1287    XYY       1.0840
       YYY      -0.2761    XXZ      -1.1057    XYZ      -0.3998
       YYZ       0.2533    XZZ      -0.6990    YZZ      -0.1051
       ZZZ      -0.3300
    Hexadecapole Moments (Debye-Ang^3)
      XXXX    -202.7867   XXXY       7.6266   XXYY     -42.0757
      XYYY      -0.1371   YYYY     -44.5359   XXXZ       0.7453
      XXYZ       0.0947   XYYZ       0.2480   YYYZ      -0.1585
      XXZZ     -45.8019   XYZZ      -0.2001   YYZZ     -17.3999
      XZZZ      -1.3449   YZZZ       0.0041   ZZZZ     -72.4403
 -----------------------------------------------------------------
Archival summary:
1\1\cn0821\SP\ProcedureUnspecified\BasisUnspecified\38\r0852400\SunApr1207:19:002020SunApr1207:19:002020\0\\#,ProcedureUnspecified,BasisUnspecified,\\0,1\C\H,1,1.09259\H,1,1.09259,2,106.189\C,1,1.51575,2,111.236,3,-119.83,0\H,4,1.0877,1,109.048,2,71.7114,0\H,4,1.08806,1,108.023,2,-72.1581,0\H,4,1.09879,1,116.975,2,178.79,0\C,1,1.53234,2,107.717,3,116.439,0\H,8,1.08495,1,104.971,2,-177.917,0\H,8,1.09324,1,113.994,2,-44.5175,0\H,8,1.09567,1,113.616,2,52.5246,0\\\@

 Total job time:  49.29s(wall), 137.20s(cpu) 
 Sun Apr 12 07:19:00 2020

        *************************************************************
        *                                                           *
        *  Thank you very much for using Q-Chem.  Have a nice day.  *
        *                                                           *
        *************************************************************


