                  Welcome to Q-Chem
     A Quantum Leap Into The Future Of Chemistry


 Q-Chem 5.2 (devel), Q-Chem, Inc., Pleasanton, CA (2019)

 Yihan Shao,  Zhengting Gan,  E. Epifanovsky,  A. T. B. Gilbert,  M. Wormit,  
 J. Kussmann,  A. W. Lange,  A. Behn,  Jia Deng,  Xintian Feng,  D. Ghosh,  
 M. Goldey,  P. R. Horn,  L. D. Jacobson,  I. Kaliman,  T. Kus,  A. Landau,  
 Jie Liu,  E. I. Proynov,  R. M. Richard,  R. P. Steele,  E. J. Sundstrom,  
 H. L. Woodcock III,  P. M. Zimmerman,  D. Zuev,  B. Alam,  B. Albrecht,  
 E. Alguire,  S. A. Baeppler,  D. Barton,  Z. Benda,  Y. A. Bernard,  
 E. J. Berquist,  K. B. Bravaya,  H. Burton,  K. Carter-Fenk,  D. Casanova,  
 Chun-Min Chang,  Yunqing Chen,  A. Chien,  K. D. Closser,  M. P. Coons,  
 S. Coriani,  S. Dasgupta,  A. L. Dempwolff,  M. Diedenhofen,  Hainam Do,  
 R. G. Edgar,  Po-Tung Fang,  S. Faraji,  S. Fatehi,  Qingguo Feng,  
 J. Fosso-Tande,  J. Gayvert,  Qinghui Ge,  A. Ghysels,  G. Gidofalvi,  
 J. Gomes,  J. Gonthier,  A. Gunina,  D. Hait,  M. W. D. Hanson-Heine,  
 P. H. P. Harbach,  A. W. Hauser,  M. F. Herbst,  J. E. Herr,  
 E. G. Hohenstein,  Z. C. Holden,  Kerwin Hui,  B. C. Huynh,  T.-C. Jagau,  
 Hyunjun Ji,  B. Kaduk,  K. Khistyaev,  Jaehoon Kim,  P. Klunzinger,  K. Koh,  
 D. Kosenkov,  L. Koulias,  T. Kowalczyk,  C. M. Krauter,  A. Kunitsa,  
 Ka Un Lao,  A. Laurent,  K. V. Lawler,  Joonho Lee,  D. Lefrancois,  
 S. Lehtola,  D. S. Levine,  Yi-Pei Li,  You-Sheng Lin,  Fenglai Liu,  
 Kuan-Yu Liu,  E. Livshits,  M. Loipersberger,  A. Luenser,  P. Manohar,  
 E. Mansoor,  S. F. Manzer,  Shan-Ping Mao,  Yuezhi Mao,  N. Mardirossian,  
 A. V. Marenich,  T. Markovich,  L. A. Martinez-Martinez,  S. A. Maurer,  
 N. J. Mayhall,  S. C. McKenzie,  J.-M. Mewes,  P. Morgante,  A. F. Morrison,  
 J. W. Mullinax,  K. Nanda,  T. S. Nguyen-Beck,  R. Olivares-Amaya,  
 J. A. Parkhill,  S. K. Paul,  Zheng Pei,  T. M. Perrine,  F. Plasser,  
 P. Pokhilko,  S. Prager,  A. Prociuk,  E. Ramos,  B. Rana,  D. R. Rehn,  
 F. Rob,  M. Scheurer,  M. Schneider,  N. Sergueev,  S. M. Sharada,  
 S. Sharma,  D. W. Small,  T. Stauch,  C. J. Stein,  T. Stein,  Yu-Chuan Su,  
 S. P. Veccham,  A. J. W. Thom,  A. Tkatchenko,  T. Tsuchimochi,  
 N. M. Tubman,  L. Vogt,  M. L. Vidal,  O. Vydrov,  M. A. Watson,  J. Wenzel,  
 M. de Wergifosse,  T. A. Wesolowski,  A. White,  J. Witte,  A. Yamada,  
 Jun Yang,  K. Yao,  S. Yeganeh,  S. R. Yost,  Zhi-Qiang You,  A. Zech,  
 Igor Ying Zhang,  Xing Zhang,  Yan Zhao,  Ying Zhu,  B. R. Brooks,  
 G. K. L. Chan,  C. J. Cramer,  M. S. Gordon,  W. J. Hehre,  A. Klamt,  
 M. W. Schmidt,  C. D. Sherrill,  D. G. Truhlar,  A. Aspuru-Guzik,  R. Baer,  
 A. T. Bell,  N. A. Besley,  Jeng-Da Chai,  A. E. DePrince, III,  
 R. A. DiStasio Jr.,  A. Dreuw,  B. D. Dunietz,  T. R. Furlani,  
 Chao-Ping Hsu,  Yousung Jung,  Jing Kong,  D. S. Lambrecht,  WanZhen Liang,  
 C. Ochsenfeld,  V. A. Rassolov,  L. V. Slipchenko,  J. E. Subotnik,  
 T. Van Voorhis,  J. M. Herbert,  A. I. Krylov,  P. M. W. Gill,  M. Head-Gordon

 Contributors to earlier versions of Q-Chem not listed above: 
 R. D. Adamson,  B. Austin,  J. Baker,  G. J. O. Beran,  K. Brandhorst,  
 S. T. Brown,  E. F. C. Byrd,  A. K. Chakraborty,  C.-L. Cheng,  
 Siu Hung Chien,  D. M. Chipman,  D. L. Crittenden,  H. Dachsel,  
 R. J. Doerksen,  A. D. Dutoi,  L. Fusti-Molnar,  W. A. Goddard III,  
 A. Golubeva-Zadorozhnaya,  S. R. Gwaltney,  G. Hawkins,  A. Heyden,  
 S. Hirata,  G. Kedziora,  F. J. Keil,  C. Kelley,  Jihan Kim,  R. A. King,  
 R. Z. Khaliullin,  P. P. Korambath,  W. Kurlancheek,  A. M. Lee,  M. S. Lee,  
 S. V. Levchenko,  Ching Yeh Lin,  D. Liotard,  R. C. Lochan,  I. Lotan,  
 P. E. Maslen,  N. Nair,  D. P. O'Neill,  D. Neuhauser,  E. Neuscamman,  
 C. M. Oana,  R. Olson,  B. Peters,  R. Peverati,  P. A. Pieniazek,  
 Y. M. Rhee,  J. Ritchie,  M. A. Rohrdanz,  E. Rosta,  N. J. Russ,  
 H. F. Schaefer III,  N. E. Schultz,  N. Shenvi,  A. C. Simmonett,  A. Sodt,  
 D. Stuck,  K. S. Thanthiriwatte,  V. Vanovschi,  Tao Wang,  A. Warshel,  
 C. F. Williams,  Q. Wu,  X. Xu,  W. Zhang

 Please cite Q-Chem as follows:
 Y. Shao et al., Mol. Phys. 113, 184-215 (2015)
 DOI: 10.1080/00268976.2014.952696

 Q-Chem 5.2.2 for Intel X86 EM64T Linux

 Parts of Q-Chem use Armadillo 9.800.1 (Horizon Scraper).
 http://arma.sourceforge.net/

 Q-Chem begins on Sun Apr 12 08:19:45 2020  

Host: cn0821
0

     Scratch files written to /tmp/ypli/6721342.srvc1/qchem195106//
Warning:  Did not find "$end" marker in "$molecule" section

Checking the input file for inconsistencies... 	...done.

--------------------------------------------------------------
User input:
--------------------------------------------------------------
$rem
   JOBTYPE  sp
   EXCHANGE   omegaB97X-D
   BASIS   6-311+G(2df,2pd)
   max_scf_cycles   250
   geom_opt_max_cycles   1500
   basis2 6-31G*
   scf_algorithm rca_diis
   SYM_IGNORE  TRUE
   print_input   true
   geom_opt_dmax   80
   pop_mulliken false
   XC_GRID 000075000302
$end

$molecule
0 1
C       1.2672753245     -0.0319674661     0.2592276039
C       0.0001573947     0.0000006332     -0.5870204077
H       1.2912298105     -0.8223258930     0.8444505415
H       1.3221415750     0.9412979664     0.9627653232
H       2.1625049133     -0.0354519505     -0.3588324185
C       -1.2663257313     0.0319569041     0.2601483873
H       -0.0123792900     -0.8737881892     -1.2428318181
H       0.0124025046     0.8737980094     -1.2428315490
H       -1.3209166838     -0.9395206661     0.9624723109
H       -2.1660087469     0.0354580364     -0.3606351391
H       -1.2900811311     0.8205432814     0.8441321845
--------------------------------------------------------------
 ----------------------------------------------------------------
             Standard Nuclear Orientation (Angstroms)
    I     Atom           X                Y                Z
 ----------------------------------------------------------------
    1      C       1.2672753245    -0.0319674661     0.2592276039
    2      C       0.0001573947     0.0000006332    -0.5870204077
    3      H       1.2912298105    -0.8223258930     0.8444505415
    4      H       1.3221415750     0.9412979664     0.9627653232
    5      H       2.1625049133    -0.0354519505    -0.3588324185
    6      C      -1.2663257313     0.0319569041     0.2601483873
    7      H      -0.0123792900    -0.8737881892    -1.2428318181
    8      H       0.0124025046     0.8737980094    -1.2428315490
    9      H      -1.3209166838    -0.9395206661     0.9624723109
   10      H      -2.1660087469     0.0354580364    -0.3606351391
   11      H      -1.2900811311     0.8205432814     0.8441321845
 ----------------------------------------------------------------
 Nuclear Repulsion Energy =          82.85220548 hartrees
 There are       13 alpha and       13 beta electrons
 Requested basis set is 6-311+G(2df,2pd)
 There are 72 shells and 214 basis functions

 Total QAlloc Memory Limit   2000 MB
 Mega-Array Size       188 MB
 MEM_STATIC part       192 MB

                       Distance Matrix (Angstroms)
             C (  1)   C (  2)   H (  3)   H (  4)   H (  5)   C (  6)
   C (  2)  1.524056
   H (  3)  0.983731  2.095757
   H (  4)  1.202174  2.243996  1.767858
   H (  5)  1.087863  2.174643  1.681125  1.845771
   C (  6)  2.534408  1.524039  2.759039  2.832090  3.484905
   H (  7)  2.145311  1.092590  2.461461  3.152799  2.492867  2.156781
   H (  8)  2.156687  1.092593  2.978084  2.566053  2.496223  2.145412
   H (  9)  2.831421  2.242513  2.617436  3.243954  3.833720  1.200003
   H ( 10)  3.489443  2.178252  3.760389  3.839157  4.329095  1.093075
   H ( 11)  2.758434  2.094326  3.059769  2.617702  3.755024  0.981565
             H (  7)   H (  8)   H (  9)   H ( 10)
   H (  8)  1.747762
   H (  9)  2.565143  3.151068
   H ( 10)  2.498624  2.495308  1.848074
   H ( 11)  2.976357  2.460634  1.764307  1.683767
 
 A cutoff of  1.0D-09 yielded   2533 shell pairs
 There are     22559 function pairs (     27734 Cartesian)
 Smallest overlap matrix eigenvalue = 8.69E-05

 Scale SEOQF with 1.000000e-01/1.000000e-01/1.000000e-01

 Standard Electronic Orientation quadrupole field applied
 Nucleus-field energy     =     0.0000000006 hartrees
 Requested basis set is 6-31G(d)
 There are 28 shells and 58 basis functions
 A cutoff of  1.0D-09 yielded    402 shell pairs
 There are      1773 function pairs (      1968 Cartesian)
 Smallest overlap matrix eigenvalue = 6.77E-03
 Guess from superposition of atomic densities
 Warning:  Energy on first SCF cycle will be non-variational
 SAD guess density has 26.000000 electrons
 Long-range K will be added via erf
 Coulomb attenuation parameter = 0.2 bohr**(-1)
 A restricted hybrid HF-DFT SCF calculation will be
 performed using Relaxed Constraint Minimization + Pulay DIIS
 Exchange:     0.2220 Hartree-Fock + 1.0000 wB97X-D + LR-HF
 Correlation:  1.0000 wB97X-D
 Using Euler-Maclaurin-Lebedev (75,302) quadrature formula
 Dispersion:   Grimme D
 SCF converges when DIIS error is below 1.0E-04
 using 3 threads for integral computing
 -------------------------------------------------------
 OpenMP Integral computing Module                
 Release: version 1.0, May 2013, Q-Chem Inc. Pittsburgh 
 -------------------------------------------------------
 using 3 threads for integral computing
 -------------------------------------------------------
 OpenMP Integral computing Module                
 Release: version 1.0, May 2013, Q-Chem Inc. Pittsburgh 
 -------------------------------------------------------
 ---------------------------------------
  Cycle       Energy         DIIS Error
 ---------------------------------------
    1    -119.6145112604      1.01E-01
    2    -119.0340385541      9.26E-03
    3    -119.0565410695      2.54E-03
    4    -119.0714484743      1.73E-03
    5    -119.0721843457      2.76E-04 Done RCA. Switching to DIIS
    6    -119.0727248893      2.02E-04
    7    -119.0727427817      5.23E-06 Convergence criterion met
 ---------------------------------------
 SCF time:  CPU 33.11 s  wall 11.45 s
 SCF   energy in the small basis set = -119.07274278
 Total energy in the small basis set = -119.07274278
 ----------------------------------------------------
  Cycle       Energy    
 ----------------------------------------------------
    1     -16.5511457199     -1.66E+01
 Long-range K will be added via erf
 Coulomb attenuation parameter = 0.2 bohr**(-1)
 A restricted hybrid HF-DFT SCF calculation will be
 performed using Relaxed Constraint Minimization + Pulay DIIS
 Exchange:     0.2220 Hartree-Fock + 1.0000 wB97X-D + LR-HF
 Correlation:  1.0000 wB97X-D
 Using Euler-Maclaurin-Lebedev (75,302) quadrature formula
 Dispersion:   Grimme D
 SCF converges when DIIS error is below 1.0E-05
 Basis2 calculation detected. Using small basis as guess for larger.
 SCFMinFind is unable to tell whether the solution found is close.
 Resetting ReadMinima to 0 and attempting to follow guess.
 SCFMinFind following SCF Guess.
 using 3 threads for integral computing
 -------------------------------------------------------
 OpenMP Integral computing Module                
 Release: version 1.0, May 2013, Q-Chem Inc. Pittsburgh 
 -------------------------------------------------------
 using 3 threads for integral computing
 -------------------------------------------------------
 OpenMP Integral computing Module                
 Release: version 1.0, May 2013, Q-Chem Inc. Pittsburgh 
 -------------------------------------------------------
 ---------------------------------------
  Cycle       Energy         DIIS Error
 ---------------------------------------
    1    -119.0931520863      4.21E-03
    2    -119.1151388043      5.89E-04 Done RCA. Switching to DIIS
    3    -119.1159491411      4.13E-04
    4    -119.1168855182      4.54E-05
    5    -119.1169002570      9.61E-06 Convergence criterion met
 ---------------------------------------
 SCF time:  CPU 84.47 s  wall 28.57 s
 SCF   energy in the final basis set = -119.11690026
 Total energy in the final basis set = -119.11690026
 
 --------------------------------------------------------------
 
                    Orbital Energies (a.u.)
 --------------------------------------------------------------
 
 Alpha MOs
 -- Occupied --
-10.2751 -10.2643 -10.2642  -0.8832  -0.7815  -0.6816  -0.5480  -0.5251
 -0.4841  -0.4661  -0.4195  -0.4151  -0.4052
 -- Virtual --
  0.0686   0.0857   0.0907   0.0986   0.1246   0.1299   0.1337   0.1415
  0.1429   0.1705   0.1710   0.1897   0.2273   0.2282   0.2458   0.2638
  0.2844   0.2909   0.3106   0.3141   0.3342   0.3514   0.4534   0.4684
  0.4749   0.5080   0.5098   0.5211   0.5457   0.5588   0.5818   0.5826
  0.6210   0.6251   0.6389   0.6446   0.6501   0.6634   0.7236   0.7267
  0.7416   0.7660   0.8204   0.8657   0.8667   0.8761   0.8823   0.9577
  0.9983   1.0525   1.0582   1.1367   1.1396   1.1720   1.1862   1.2170
  1.2253   1.2358   1.2654   1.2725   1.2929   1.2973   1.3246   1.3726
  1.3762   1.3909   1.4060   1.4404   1.4448   1.4686   1.4722   1.4856
  1.5344   1.5828   1.5966   1.6125   1.6545   1.6574   1.6939   1.7206
  1.7646   2.3403   2.4365   2.4699   2.5044   2.5460   2.5875   2.6181
  2.6286   2.7332   2.8186   2.8314   2.8348   2.8813   2.9179   2.9245
  2.9300   2.9467   2.9933   3.0208   3.0357   3.0748   3.0760   3.1129
  3.1329   3.1447   3.1793   3.1965   3.2107   3.2224   3.2800   3.2923
  3.3000   3.3278   3.3374   3.3572   3.3593   3.3823   3.3979   3.4510
  3.4545   3.4757   3.5012   3.5057   3.5297   3.5553   3.6078   3.6227
  3.6242   3.6761   3.6882   3.7097   3.7640   3.7906   3.8790   3.8838
  3.9041   3.9216   3.9515   3.9576   3.9822   3.9840   4.0531   4.0723
  4.0762   4.0881   4.1046   4.1493   4.1578   4.1646   4.1936   4.2066
  4.2170   4.2664   4.2698   4.3555   4.3686   4.4186   4.4201   4.4278
  4.4418   4.5328   4.6058   4.6120   4.6176   4.7666   4.8213   4.8602
  4.8884   4.9144   4.9283   5.0098   5.0136   5.0520   5.0597   5.0925
  5.1311   5.2279   5.2311   5.2627   5.3358   5.3610   5.3988   5.4677
  5.5067   5.5203   5.5571   5.5770   5.5961   5.6514   5.6937   5.8129
  5.9406   6.2479   6.2550   6.4569   6.5356   6.5662  25.2010  25.4016
 25.4102
 --------------------------------------------------------------
 
 -----------------------------------------------------------------
                    Cartesian Multipole Moments
 -----------------------------------------------------------------
    Charge (ESU x 10^10)
                 0.0000
    Dipole Moment (Debye)
         X       0.0033      Y      -0.0011      Z      -0.1308
       Tot       0.1309
    Quadrupole Moments (Debye-Ang)
        XX     -22.1701     XY      -0.4071     YY     -21.3607
        XZ      -0.0048     YZ      -0.0006     ZZ     -21.8749
    Octopole Moments (Debye-Ang^2)
       XXX       0.0185    XXY      -0.0047    XYY       0.0032
       YYY      -0.0033    XXZ      -1.6709    XYZ      -0.1193
       YYZ       0.4353    XZZ      -0.0053    YZZ      -0.0015
       ZZZ      -0.5887
    Hexadecapole Moments (Debye-Ang^3)
      XXXX    -202.3142   XXXY      -2.0634   XXYY     -42.2968
      XYYY      -0.7641   YYYY     -44.4280   XXXZ      -0.0249
      XXYZ      -0.0024   XYYZ      -0.0090   YYYZ      -0.0026
      XXZZ     -45.4677   XYZZ      -0.2185   YYZZ     -17.1595
      XZZZ      -0.0371   YZZZ      -0.0031   ZZZZ     -72.5768
 -----------------------------------------------------------------
Archival summary:
1\1\cn0821\SP\ProcedureUnspecified\BasisUnspecified\38\r0852400\SunApr1208:20:292020SunApr1208:20:292020\0\\#,ProcedureUnspecified,BasisUnspecified,\\0,1\C\H,1,1.09259\H,1,1.09259,2,106.227\C,1,1.52404,2,109.931,3,117.834,0\H,4,0.981565,1,111.572,2,-178.639,0\H,4,1.09308,1,111.614,2,-57.209,0\H,4,1.2,1,110.253,2,61.9558,0\C,1,1.52406,2,109.029,3,-118.41,0\H,8,0.983731,1,111.557,2,-62.574,0\H,8,1.08786,1,111.641,2,58.8622,0\H,8,1.20217,1,110.238,2,178.033,0\\\@

 Total job time:  44.22s(wall), 122.71s(cpu) 
 Sun Apr 12 08:20:29 2020

        *************************************************************
        *                                                           *
        *  Thank you very much for using Q-Chem.  Have a nice day.  *
        *                                                           *
        *************************************************************


