                  Welcome to Q-Chem
     A Quantum Leap Into The Future Of Chemistry


 Q-Chem 5.2 (devel), Q-Chem, Inc., Pleasanton, CA (2019)

 Yihan Shao,  Zhengting Gan,  E. Epifanovsky,  A. T. B. Gilbert,  M. Wormit,  
 J. Kussmann,  A. W. Lange,  A. Behn,  Jia Deng,  Xintian Feng,  D. Ghosh,  
 M. Goldey,  P. R. Horn,  L. D. Jacobson,  I. Kaliman,  T. Kus,  A. Landau,  
 Jie Liu,  E. I. Proynov,  R. M. Richard,  R. P. Steele,  E. J. Sundstrom,  
 H. L. Woodcock III,  P. M. Zimmerman,  D. Zuev,  B. Alam,  B. Albrecht,  
 E. Alguire,  S. A. Baeppler,  D. Barton,  Z. Benda,  Y. A. Bernard,  
 E. J. Berquist,  K. B. Bravaya,  H. Burton,  K. Carter-Fenk,  D. Casanova,  
 Chun-Min Chang,  Yunqing Chen,  A. Chien,  K. D. Closser,  M. P. Coons,  
 S. Coriani,  S. Dasgupta,  A. L. Dempwolff,  M. Diedenhofen,  Hainam Do,  
 R. G. Edgar,  Po-Tung Fang,  S. Faraji,  S. Fatehi,  Qingguo Feng,  
 J. Fosso-Tande,  J. Gayvert,  Qinghui Ge,  A. Ghysels,  G. Gidofalvi,  
 J. Gomes,  J. Gonthier,  A. Gunina,  D. Hait,  M. W. D. Hanson-Heine,  
 P. H. P. Harbach,  A. W. Hauser,  M. F. Herbst,  J. E. Herr,  
 E. G. Hohenstein,  Z. C. Holden,  Kerwin Hui,  B. C. Huynh,  T.-C. Jagau,  
 Hyunjun Ji,  B. Kaduk,  K. Khistyaev,  Jaehoon Kim,  P. Klunzinger,  K. Koh,  
 D. Kosenkov,  L. Koulias,  T. Kowalczyk,  C. M. Krauter,  A. Kunitsa,  
 Ka Un Lao,  A. Laurent,  K. V. Lawler,  Joonho Lee,  D. Lefrancois,  
 S. Lehtola,  D. S. Levine,  Yi-Pei Li,  You-Sheng Lin,  Fenglai Liu,  
 Kuan-Yu Liu,  E. Livshits,  M. Loipersberger,  A. Luenser,  P. Manohar,  
 E. Mansoor,  S. F. Manzer,  Shan-Ping Mao,  Yuezhi Mao,  N. Mardirossian,  
 A. V. Marenich,  T. Markovich,  L. A. Martinez-Martinez,  S. A. Maurer,  
 N. J. Mayhall,  S. C. McKenzie,  J.-M. Mewes,  P. Morgante,  A. F. Morrison,  
 J. W. Mullinax,  K. Nanda,  T. S. Nguyen-Beck,  R. Olivares-Amaya,  
 J. A. Parkhill,  S. K. Paul,  Zheng Pei,  T. M. Perrine,  F. Plasser,  
 P. Pokhilko,  S. Prager,  A. Prociuk,  E. Ramos,  B. Rana,  D. R. Rehn,  
 F. Rob,  M. Scheurer,  M. Schneider,  N. Sergueev,  S. M. Sharada,  
 S. Sharma,  D. W. Small,  T. Stauch,  C. J. Stein,  T. Stein,  Yu-Chuan Su,  
 S. P. Veccham,  A. J. W. Thom,  A. Tkatchenko,  T. Tsuchimochi,  
 N. M. Tubman,  L. Vogt,  M. L. Vidal,  O. Vydrov,  M. A. Watson,  J. Wenzel,  
 M. de Wergifosse,  T. A. Wesolowski,  A. White,  J. Witte,  A. Yamada,  
 Jun Yang,  K. Yao,  S. Yeganeh,  S. R. Yost,  Zhi-Qiang You,  A. Zech,  
 Igor Ying Zhang,  Xing Zhang,  Yan Zhao,  Ying Zhu,  B. R. Brooks,  
 G. K. L. Chan,  C. J. Cramer,  M. S. Gordon,  W. J. Hehre,  A. Klamt,  
 M. W. Schmidt,  C. D. Sherrill,  D. G. Truhlar,  A. Aspuru-Guzik,  R. Baer,  
 A. T. Bell,  N. A. Besley,  Jeng-Da Chai,  A. E. DePrince, III,  
 R. A. DiStasio Jr.,  A. Dreuw,  B. D. Dunietz,  T. R. Furlani,  
 Chao-Ping Hsu,  Yousung Jung,  Jing Kong,  D. S. Lambrecht,  WanZhen Liang,  
 C. Ochsenfeld,  V. A. Rassolov,  L. V. Slipchenko,  J. E. Subotnik,  
 T. Van Voorhis,  J. M. Herbert,  A. I. Krylov,  P. M. W. Gill,  M. Head-Gordon

 Contributors to earlier versions of Q-Chem not listed above: 
 R. D. Adamson,  B. Austin,  J. Baker,  G. J. O. Beran,  K. Brandhorst,  
 S. T. Brown,  E. F. C. Byrd,  A. K. Chakraborty,  C.-L. Cheng,  
 Siu Hung Chien,  D. M. Chipman,  D. L. Crittenden,  H. Dachsel,  
 R. J. Doerksen,  A. D. Dutoi,  L. Fusti-Molnar,  W. A. Goddard III,  
 A. Golubeva-Zadorozhnaya,  S. R. Gwaltney,  G. Hawkins,  A. Heyden,  
 S. Hirata,  G. Kedziora,  F. J. Keil,  C. Kelley,  Jihan Kim,  R. A. King,  
 R. Z. Khaliullin,  P. P. Korambath,  W. Kurlancheek,  A. M. Lee,  M. S. Lee,  
 S. V. Levchenko,  Ching Yeh Lin,  D. Liotard,  R. C. Lochan,  I. Lotan,  
 P. E. Maslen,  N. Nair,  D. P. O'Neill,  D. Neuhauser,  E. Neuscamman,  
 C. M. Oana,  R. Olson,  B. Peters,  R. Peverati,  P. A. Pieniazek,  
 Y. M. Rhee,  J. Ritchie,  M. A. Rohrdanz,  E. Rosta,  N. J. Russ,  
 H. F. Schaefer III,  N. E. Schultz,  N. Shenvi,  A. C. Simmonett,  A. Sodt,  
 D. Stuck,  K. S. Thanthiriwatte,  V. Vanovschi,  Tao Wang,  A. Warshel,  
 C. F. Williams,  Q. Wu,  X. Xu,  W. Zhang

 Please cite Q-Chem as follows:
 Y. Shao et al., Mol. Phys. 113, 184-215 (2015)
 DOI: 10.1080/00268976.2014.952696

 Q-Chem 5.2.2 for Intel X86 EM64T Linux

 Parts of Q-Chem use Armadillo 9.800.1 (Horizon Scraper).
 http://arma.sourceforge.net/

 Q-Chem begins on Sun Apr 12 08:04:42 2020  

Host: cn0821
0

     Scratch files written to /tmp/ypli/6721342.srvc1/qchem192981//
Warning:  Did not find "$end" marker in "$molecule" section

Checking the input file for inconsistencies... 	...done.

--------------------------------------------------------------
User input:
--------------------------------------------------------------
$rem
   JOBTYPE  sp
   EXCHANGE   omegaB97X-D
   BASIS   6-311+G(2df,2pd)
   max_scf_cycles   250
   geom_opt_max_cycles   1500
   basis2 6-31G*
   scf_algorithm rca_diis
   SYM_IGNORE  TRUE
   print_input   true
   geom_opt_dmax   80
   pop_mulliken false
   XC_GRID 000075000302
$end

$molecule
0 1
C       1.2677863559     0.0000093130     0.2641693512
C       0.0000000719     -0.0000325302     -0.5748174954
H       1.3055228064     -0.8829107444     0.9106970410
H       1.3055365000     0.8827706782     0.9105308210
H       2.1566302259     0.0000163450     -0.3484088049
C       -1.2677861719     0.0000094109     0.2641692568
H       0.0000001209     -0.9316561455     -1.2789012401
H       -0.0000000004     0.9319174018     -1.2792133638
H       -1.3055227204     -0.8829115344     0.9106976427
H       -2.1566308171     0.0000169661     -0.3484094192
H       -1.3055364317     0.8827715055     0.9105312296
--------------------------------------------------------------
 ----------------------------------------------------------------
             Standard Nuclear Orientation (Angstroms)
    I     Atom           X                Y                Z
 ----------------------------------------------------------------
    1      C       1.2677863559     0.0000093130     0.2641693512
    2      C       0.0000000719    -0.0000325302    -0.5748174954
    3      H       1.3055228064    -0.8829107444     0.9106970410
    4      H       1.3055365000     0.8827706782     0.9105308210
    5      H       2.1566302259     0.0000163450    -0.3484088049
    6      C      -1.2677861719     0.0000094109     0.2641692568
    7      H       0.0000001209    -0.9316561455    -1.2789012401
    8      H      -0.0000000004     0.9319174018    -1.2792133638
    9      H      -1.3055227204    -0.8829115344     0.9106976427
   10      H      -2.1566308171     0.0000169661    -0.3484094192
   11      H      -1.3055364317     0.8827715055     0.9105312296
 ----------------------------------------------------------------
 Nuclear Repulsion Energy =          82.26755619 hartrees
 There are       13 alpha and       13 beta electrons
 Requested basis set is 6-311+G(2df,2pd)
 There are 72 shells and 214 basis functions

 Total QAlloc Memory Limit   2000 MB
 Mega-Array Size       188 MB
 MEM_STATIC part       192 MB

                       Distance Matrix (Angstroms)
             C (  1)   C (  2)   H (  3)   H (  4)   H (  5)   C (  6)
   C (  2)  1.520257
   H (  3)  1.094975  2.165783
   H (  4)  1.094749  2.165647  1.765681
   H (  5)  1.079489  2.168482  1.757638  1.757426
   C (  6)  2.535573  1.520257  2.796331  2.796255  3.478776
   H (  7)  2.203713  1.167757  2.549727  3.128927  2.526833  2.203713
   H (  8)  2.204034  1.168206  3.129489  2.549867  2.527032  2.204034
   H (  9)  2.796331  2.165784  2.611046  3.152025  3.788326  1.094976
   H ( 10)  3.478776  2.168483  3.788327  3.788243  4.313261  1.079489
   H ( 11)  2.796255  2.165648  3.152025  2.611073  3.788243  1.094750
             H (  7)   H (  8)   H (  9)   H ( 10)
   H (  8)  1.863574
   H (  9)  2.549727  3.129489
   H ( 10)  2.526833  2.527032  1.757640
   H ( 11)  3.128928  2.549867  1.765683  1.757427
 
 A cutoff of  1.0D-09 yielded   2528 shell pairs
 There are     22574 function pairs (     27755 Cartesian)
 Smallest overlap matrix eigenvalue = 8.65E-05

 Scale SEOQF with 1.000000e-01/1.000000e-01/1.000000e-01

 Standard Electronic Orientation quadrupole field applied
 Nucleus-field energy     =     0.0000000006 hartrees
 Requested basis set is 6-31G(d)
 There are 28 shells and 58 basis functions
 A cutoff of  1.0D-09 yielded    402 shell pairs
 There are      1773 function pairs (      1968 Cartesian)
 Smallest overlap matrix eigenvalue = 6.94E-03
 Guess from superposition of atomic densities
 Warning:  Energy on first SCF cycle will be non-variational
 SAD guess density has 26.000000 electrons
 Long-range K will be added via erf
 Coulomb attenuation parameter = 0.2 bohr**(-1)
 A restricted hybrid HF-DFT SCF calculation will be
 performed using Relaxed Constraint Minimization + Pulay DIIS
 Exchange:     0.2220 Hartree-Fock + 1.0000 wB97X-D + LR-HF
 Correlation:  1.0000 wB97X-D
 Using Euler-Maclaurin-Lebedev (75,302) quadrature formula
 Dispersion:   Grimme D
 SCF converges when DIIS error is below 1.0E-04
 using 3 threads for integral computing
 -------------------------------------------------------
 OpenMP Integral computing Module                
 Release: version 1.0, May 2013, Q-Chem Inc. Pittsburgh 
 -------------------------------------------------------
 using 3 threads for integral computing
 -------------------------------------------------------
 OpenMP Integral computing Module                
 Release: version 1.0, May 2013, Q-Chem Inc. Pittsburgh 
 -------------------------------------------------------
 ---------------------------------------
  Cycle       Energy         DIIS Error
 ---------------------------------------
    1    -119.5466686210      9.82E-02
    2    -119.0626109134      8.85E-03
    3    -119.0829222247      2.38E-03
    4    -119.0965120173      1.64E-03
    5    -119.0971708396      2.45E-04 Done RCA. Switching to DIIS
    6    -119.0976690831      1.85E-04
    7    -119.0976840579      4.44E-06 Convergence criterion met
 ---------------------------------------
 SCF time:  CPU 33.03 s  wall 11.43 s
 SCF   energy in the small basis set = -119.09768406
 Total energy in the small basis set = -119.09768406
 ----------------------------------------------------
  Cycle       Energy    
 ----------------------------------------------------
    1     -16.4972698371     -1.65E+01
 Long-range K will be added via erf
 Coulomb attenuation parameter = 0.2 bohr**(-1)
 A restricted hybrid HF-DFT SCF calculation will be
 performed using Relaxed Constraint Minimization + Pulay DIIS
 Exchange:     0.2220 Hartree-Fock + 1.0000 wB97X-D + LR-HF
 Correlation:  1.0000 wB97X-D
 Using Euler-Maclaurin-Lebedev (75,302) quadrature formula
 Dispersion:   Grimme D
 SCF converges when DIIS error is below 1.0E-05
 Basis2 calculation detected. Using small basis as guess for larger.
 SCFMinFind is unable to tell whether the solution found is close.
 Resetting ReadMinima to 0 and attempting to follow guess.
 SCFMinFind following SCF Guess.
 using 3 threads for integral computing
 -------------------------------------------------------
 OpenMP Integral computing Module                
 Release: version 1.0, May 2013, Q-Chem Inc. Pittsburgh 
 -------------------------------------------------------
 using 3 threads for integral computing
 -------------------------------------------------------
 OpenMP Integral computing Module                
 Release: version 1.0, May 2013, Q-Chem Inc. Pittsburgh 
 -------------------------------------------------------
 ---------------------------------------
  Cycle       Energy         DIIS Error
 ---------------------------------------
    1    -119.1163256739      4.21E-03
    2    -119.1382771635      5.85E-04 Done RCA. Switching to DIIS
    3    -119.1390599728      4.17E-04
    4    -119.1400227589      4.77E-05
    5    -119.1400385266      1.34E-05
    6    -119.1400396045      4.34E-06 Convergence criterion met
 ---------------------------------------
 SCF time:  CPU 96.45 s  wall 32.65 s
 SCF   energy in the final basis set = -119.14003960
 Total energy in the final basis set = -119.14003960
 
 --------------------------------------------------------------
 
                    Orbital Energies (a.u.)
 --------------------------------------------------------------
 
 Alpha MOs
 -- Occupied --
-10.2898 -10.2659 -10.2659  -0.8791  -0.7795  -0.6675  -0.5401  -0.5266
 -0.4838  -0.4640  -0.4228  -0.4142  -0.3986
 -- Virtual --
  0.0693   0.0855   0.0902   0.0979   0.1246   0.1296   0.1332   0.1410
  0.1434   0.1711   0.1714   0.1912   0.2275   0.2360   0.2426   0.2500
  0.2799   0.2862   0.3089   0.3135   0.3299   0.3503   0.4555   0.4703
  0.4710   0.5089   0.5128   0.5156   0.5452   0.5584   0.5721   0.5823
  0.6255   0.6261   0.6315   0.6462   0.6514   0.6538   0.6967   0.7101
  0.7258   0.7611   0.8152   0.8620   0.8635   0.8726   0.8825   0.9528
  1.0013   1.0437   1.0532   1.1401   1.1426   1.1698   1.1767   1.2121
  1.2173   1.2206   1.2496   1.2676   1.2809   1.2904   1.3303   1.3760
  1.3811   1.3975   1.4030   1.4345   1.4628   1.4643   1.4663   1.4698
  1.5092   1.5718   1.5821   1.6236   1.6325   1.6329   1.6860   1.6906
  1.7222   2.3687   2.4604   2.4753   2.5146   2.5537   2.5817   2.5997
  2.6209   2.7164   2.8191   2.8328   2.8338   2.8872   2.9135   2.9251
  2.9302   2.9363   2.9791   2.9955   3.0519   3.0556   3.0775   3.1136
  3.1204   3.1268   3.1901   3.1921   3.2039   3.2084   3.2713   3.2875
  3.3217   3.3324   3.3351   3.3407   3.3606   3.3621   3.3829   3.3899
  3.4590   3.4785   3.4831   3.4984   3.5586   3.5751   3.6017   3.6129
  3.6225   3.6435   3.6773   3.7019   3.7709   3.7764   3.8738   3.8803
  3.9304   3.9311   3.9517   3.9561   3.9593   3.9844   4.0240   4.0370
  4.0454   4.0668   4.0989   4.1258   4.1356   4.1485   4.1626   4.1820
  4.2152   4.2437   4.2437   4.3363   4.3608   4.3758   4.4023   4.4172
  4.4202   4.5163   4.5187   4.5512   4.6567   4.7554   4.7970   4.8343
  4.8809   4.8952   4.9011   4.9533   5.0172   5.0205   5.0248   5.0473
  5.1208   5.1493   5.2450   5.2488   5.2647   5.2991   5.3212   5.3443
  5.3717   5.3817   5.4476   5.4551   5.4627   5.5157   5.5554   5.7495
  5.8673   6.2532   6.3752   6.3883   6.4067   6.4257  24.9671  25.4488
 25.4617
 --------------------------------------------------------------
 
 -----------------------------------------------------------------
                    Cartesian Multipole Moments
 -----------------------------------------------------------------
    Charge (ESU x 10^10)
                 0.0000
    Dipole Moment (Debye)
         X       0.0000      Y      -0.0001      Z       0.0125
       Tot       0.0125
    Quadrupole Moments (Debye-Ang)
        XX     -22.0887     XY      -0.0000     YY     -21.4753
        XZ       0.0000     YZ       0.0004     ZZ     -22.0886
    Octopole Moments (Debye-Ang^2)
       XXX       0.0000    XXY       0.0011    XYY       0.0000
       YYY      -0.0001    XXZ      -1.4316    XYZ       0.0000
       YYZ       0.5306    XZZ       0.0000    YZZ      -0.0004
       ZZZ       0.0060
    Hexadecapole Moments (Debye-Ang^3)
      XXXX    -200.4208   XXXY      -0.0000   XXYY     -42.3322
      XYYY       0.0000   YYYY     -46.0185   XXXZ       0.0000
      XXYZ       0.0022   XYYZ      -0.0000   YYYZ       0.0049
      XXZZ     -45.6062   XYZZ       0.0000   YYZZ     -17.5863
      XZZZ       0.0000   YZZZ       0.0052   ZZZZ     -74.8508
 -----------------------------------------------------------------
Archival summary:
1\1\cn0821\SP\ProcedureUnspecified\BasisUnspecified\38\r0852400\SunApr1208:05:312020SunApr1208:05:312020\0\\#,ProcedureUnspecified,BasisUnspecified,\\0,1\C\H,1,1.16776\H,1,1.16821,2,105.836\C,1,1.52026,2,109.437,3,117.831,0\H,4,1.07949,1,111.93,2,-57.7783,0\H,4,1.09475,1,110.77,2,-178.192,0\H,4,1.09498,1,110.767,2,62.6369,0\C,1,1.52026,2,109.437,3,-117.831,0\H,8,1.07949,1,111.93,2,57.7783,0\H,8,1.09475,1,110.77,2,178.192,0\H,8,1.09497,1,110.767,2,-62.6369,0\\\@

 Total job time:  48.42s(wall), 134.75s(cpu) 
 Sun Apr 12 08:05:31 2020

        *************************************************************
        *                                                           *
        *  Thank you very much for using Q-Chem.  Have a nice day.  *
        *                                                           *
        *************************************************************


