                  Welcome to Q-Chem
     A Quantum Leap Into The Future Of Chemistry


 Q-Chem 5.2 (devel), Q-Chem, Inc., Pleasanton, CA (2019)

 Yihan Shao,  Zhengting Gan,  E. Epifanovsky,  A. T. B. Gilbert,  M. Wormit,  
 J. Kussmann,  A. W. Lange,  A. Behn,  Jia Deng,  Xintian Feng,  D. Ghosh,  
 M. Goldey,  P. R. Horn,  L. D. Jacobson,  I. Kaliman,  T. Kus,  A. Landau,  
 Jie Liu,  E. I. Proynov,  R. M. Richard,  R. P. Steele,  E. J. Sundstrom,  
 H. L. Woodcock III,  P. M. Zimmerman,  D. Zuev,  B. Alam,  B. Albrecht,  
 E. Alguire,  S. A. Baeppler,  D. Barton,  Z. Benda,  Y. A. Bernard,  
 E. J. Berquist,  K. B. Bravaya,  H. Burton,  K. Carter-Fenk,  D. Casanova,  
 Chun-Min Chang,  Yunqing Chen,  A. Chien,  K. D. Closser,  M. P. Coons,  
 S. Coriani,  S. Dasgupta,  A. L. Dempwolff,  M. Diedenhofen,  Hainam Do,  
 R. G. Edgar,  Po-Tung Fang,  S. Faraji,  S. Fatehi,  Qingguo Feng,  
 J. Fosso-Tande,  J. Gayvert,  Qinghui Ge,  A. Ghysels,  G. Gidofalvi,  
 J. Gomes,  J. Gonthier,  A. Gunina,  D. Hait,  M. W. D. Hanson-Heine,  
 P. H. P. Harbach,  A. W. Hauser,  M. F. Herbst,  J. E. Herr,  
 E. G. Hohenstein,  Z. C. Holden,  Kerwin Hui,  B. C. Huynh,  T.-C. Jagau,  
 Hyunjun Ji,  B. Kaduk,  K. Khistyaev,  Jaehoon Kim,  P. Klunzinger,  K. Koh,  
 D. Kosenkov,  L. Koulias,  T. Kowalczyk,  C. M. Krauter,  A. Kunitsa,  
 Ka Un Lao,  A. Laurent,  K. V. Lawler,  Joonho Lee,  D. Lefrancois,  
 S. Lehtola,  D. S. Levine,  Yi-Pei Li,  You-Sheng Lin,  Fenglai Liu,  
 Kuan-Yu Liu,  E. Livshits,  M. Loipersberger,  A. Luenser,  P. Manohar,  
 E. Mansoor,  S. F. Manzer,  Shan-Ping Mao,  Yuezhi Mao,  N. Mardirossian,  
 A. V. Marenich,  T. Markovich,  L. A. Martinez-Martinez,  S. A. Maurer,  
 N. J. Mayhall,  S. C. McKenzie,  J.-M. Mewes,  P. Morgante,  A. F. Morrison,  
 J. W. Mullinax,  K. Nanda,  T. S. Nguyen-Beck,  R. Olivares-Amaya,  
 J. A. Parkhill,  S. K. Paul,  Zheng Pei,  T. M. Perrine,  F. Plasser,  
 P. Pokhilko,  S. Prager,  A. Prociuk,  E. Ramos,  B. Rana,  D. R. Rehn,  
 F. Rob,  M. Scheurer,  M. Schneider,  N. Sergueev,  S. M. Sharada,  
 S. Sharma,  D. W. Small,  T. Stauch,  C. J. Stein,  T. Stein,  Yu-Chuan Su,  
 S. P. Veccham,  A. J. W. Thom,  A. Tkatchenko,  T. Tsuchimochi,  
 N. M. Tubman,  L. Vogt,  M. L. Vidal,  O. Vydrov,  M. A. Watson,  J. Wenzel,  
 M. de Wergifosse,  T. A. Wesolowski,  A. White,  J. Witte,  A. Yamada,  
 Jun Yang,  K. Yao,  S. Yeganeh,  S. R. Yost,  Zhi-Qiang You,  A. Zech,  
 Igor Ying Zhang,  Xing Zhang,  Yan Zhao,  Ying Zhu,  B. R. Brooks,  
 G. K. L. Chan,  C. J. Cramer,  M. S. Gordon,  W. J. Hehre,  A. Klamt,  
 M. W. Schmidt,  C. D. Sherrill,  D. G. Truhlar,  A. Aspuru-Guzik,  R. Baer,  
 A. T. Bell,  N. A. Besley,  Jeng-Da Chai,  A. E. DePrince, III,  
 R. A. DiStasio Jr.,  A. Dreuw,  B. D. Dunietz,  T. R. Furlani,  
 Chao-Ping Hsu,  Yousung Jung,  Jing Kong,  D. S. Lambrecht,  WanZhen Liang,  
 C. Ochsenfeld,  V. A. Rassolov,  L. V. Slipchenko,  J. E. Subotnik,  
 T. Van Voorhis,  J. M. Herbert,  A. I. Krylov,  P. M. W. Gill,  M. Head-Gordon

 Contributors to earlier versions of Q-Chem not listed above: 
 R. D. Adamson,  B. Austin,  J. Baker,  G. J. O. Beran,  K. Brandhorst,  
 S. T. Brown,  E. F. C. Byrd,  A. K. Chakraborty,  C.-L. Cheng,  
 Siu Hung Chien,  D. M. Chipman,  D. L. Crittenden,  H. Dachsel,  
 R. J. Doerksen,  A. D. Dutoi,  L. Fusti-Molnar,  W. A. Goddard III,  
 A. Golubeva-Zadorozhnaya,  S. R. Gwaltney,  G. Hawkins,  A. Heyden,  
 S. Hirata,  G. Kedziora,  F. J. Keil,  C. Kelley,  Jihan Kim,  R. A. King,  
 R. Z. Khaliullin,  P. P. Korambath,  W. Kurlancheek,  A. M. Lee,  M. S. Lee,  
 S. V. Levchenko,  Ching Yeh Lin,  D. Liotard,  R. C. Lochan,  I. Lotan,  
 P. E. Maslen,  N. Nair,  D. P. O'Neill,  D. Neuhauser,  E. Neuscamman,  
 C. M. Oana,  R. Olson,  B. Peters,  R. Peverati,  P. A. Pieniazek,  
 Y. M. Rhee,  J. Ritchie,  M. A. Rohrdanz,  E. Rosta,  N. J. Russ,  
 H. F. Schaefer III,  N. E. Schultz,  N. Shenvi,  A. C. Simmonett,  A. Sodt,  
 D. Stuck,  K. S. Thanthiriwatte,  V. Vanovschi,  Tao Wang,  A. Warshel,  
 C. F. Williams,  Q. Wu,  X. Xu,  W. Zhang

 Please cite Q-Chem as follows:
 Y. Shao et al., Mol. Phys. 113, 184-215 (2015)
 DOI: 10.1080/00268976.2014.952696

 Q-Chem 5.2.2 for Intel X86 EM64T Linux

 Parts of Q-Chem use Armadillo 9.800.1 (Horizon Scraper).
 http://arma.sourceforge.net/

 Q-Chem begins on Sun Apr 12 06:50:11 2020  

Host: cn0821
0

     Scratch files written to /tmp/ypli/6721342.srvc1/qchem181868//
Warning:  Did not find "$end" marker in "$molecule" section

Checking the input file for inconsistencies... 	...done.

--------------------------------------------------------------
User input:
--------------------------------------------------------------
$rem
   JOBTYPE  sp
   EXCHANGE   omegaB97X-D
   BASIS   6-311+G(2df,2pd)
   max_scf_cycles   250
   geom_opt_max_cycles   1500
   basis2 6-31G*
   scf_algorithm rca_diis
   SYM_IGNORE  TRUE
   print_input   true
   geom_opt_dmax   80
   pop_mulliken false
   XC_GRID 000075000302
$end

$molecule
0 1
C       1.2626820715     0.1079624881     0.2604428011
C       0.0045665100     -0.0014462602     -0.5888079468
H       1.2776598989     -0.8345830906     0.8124606147
H       1.3303228550     0.9328828610     0.9709272556
H       2.1611895964     0.0347106387     -0.3535960019
C       -1.2627810145     -0.1096102809     0.2547139436
H       -0.3381330468     -0.8218536214     -1.2238238729
H       0.3253253791     0.8257316341     -1.2264965530
H       -1.3309406773     -0.9213257219     0.9809947366
H       -2.1545798747     -0.0367443270     -0.3681061687
H       -1.2753117582     0.8242763462     0.8223362106
--------------------------------------------------------------
 ----------------------------------------------------------------
             Standard Nuclear Orientation (Angstroms)
    I     Atom           X                Y                Z
 ----------------------------------------------------------------
    1      C       1.2626820715     0.1079624881     0.2604428011
    2      C       0.0045665100    -0.0014462602    -0.5888079468
    3      H       1.2776598989    -0.8345830906     0.8124606147
    4      H       1.3303228550     0.9328828610     0.9709272556
    5      H       2.1611895964     0.0347106387    -0.3535960019
    6      C      -1.2627810145    -0.1096102809     0.2547139436
    7      H      -0.3381330468    -0.8218536214    -1.2238238729
    8      H       0.3253253791     0.8257316341    -1.2264965530
    9      H      -1.3309406773    -0.9213257219     0.9809947366
   10      H      -2.1545798747    -0.0367443270    -0.3681061687
   11      H      -1.2753117582     0.8242763462     0.8223362106
 ----------------------------------------------------------------
 Nuclear Repulsion Energy =          82.95017043 hartrees
 There are       13 alpha and       13 beta electrons
 Requested basis set is 6-311+G(2df,2pd)
 There are 72 shells and 214 basis functions

 Total QAlloc Memory Limit   2000 MB
 Mega-Array Size       188 MB
 MEM_STATIC part       192 MB

                       Distance Matrix (Angstroms)
             C (  1)   C (  2)   H (  3)   H (  4)   H (  5)   C (  6)
   C (  2)  1.521858
   H (  3)  1.092401  2.068438
   H (  4)  1.090806  2.250194  1.775337
   H (  5)  1.090745  2.169713  1.701759  1.803168
   C (  6)  2.534824  1.526237  2.700094  2.885124  3.480581
   H (  7)  2.372807  1.092592  2.599501  3.267993  2.781656  1.883703
   H (  8)  1.898636  1.092592  2.796593  2.418713  2.181299  2.364515
   H (  9)  2.881928  2.256998  2.615478  3.243534  3.858771  1.091335
   H ( 10)  3.477599  2.170684  3.716255  3.857167  4.316385  1.090192
   H ( 11)  2.696339  2.076351  3.044598  2.612127  3.716957  1.092930
             H (  7)   H (  8)   H (  9)   H ( 10)
   H (  8)  1.776154
   H (  9)  2.420080  3.266258
   H ( 10)  2.155952  2.762359  1.811336
   H ( 11)  2.788336  2.599953  1.753680  1.712198
 
 A cutoff of  1.0D-09 yielded   2533 shell pairs
 There are     22519 function pairs (     27682 Cartesian)
 Smallest overlap matrix eigenvalue = 1.20E-04

 Scale SEOQF with 1.000000e-01/1.000000e-01/1.000000e-01

 Standard Electronic Orientation quadrupole field applied
 Nucleus-field energy     =     0.0000000006 hartrees
 Requested basis set is 6-31G(d)
 There are 28 shells and 58 basis functions
 A cutoff of  1.0D-09 yielded    402 shell pairs
 There are      1773 function pairs (      1968 Cartesian)
 Smallest overlap matrix eigenvalue = 7.49E-03
 Guess from superposition of atomic densities
 Warning:  Energy on first SCF cycle will be non-variational
 SAD guess density has 26.000000 electrons
 Long-range K will be added via erf
 Coulomb attenuation parameter = 0.2 bohr**(-1)
 A restricted hybrid HF-DFT SCF calculation will be
 performed using Relaxed Constraint Minimization + Pulay DIIS
 Exchange:     0.2220 Hartree-Fock + 1.0000 wB97X-D + LR-HF
 Correlation:  1.0000 wB97X-D
 Using Euler-Maclaurin-Lebedev (75,302) quadrature formula
 Dispersion:   Grimme D
 SCF converges when DIIS error is below 1.0E-04
 using 3 threads for integral computing
 -------------------------------------------------------
 OpenMP Integral computing Module                
 Release: version 1.0, May 2013, Q-Chem Inc. Pittsburgh 
 -------------------------------------------------------
 using 3 threads for integral computing
 -------------------------------------------------------
 OpenMP Integral computing Module                
 Release: version 1.0, May 2013, Q-Chem Inc. Pittsburgh 
 -------------------------------------------------------
 ---------------------------------------
  Cycle       Energy         DIIS Error
 ---------------------------------------
    1    -119.6561354461      1.01E-01
    2    -119.0169025434      9.06E-03
    3    -119.0384175452      2.56E-03
    4    -119.0524898974      1.77E-03
    5    -119.0532599573      2.81E-04 Done RCA. Switching to DIIS
    6    -119.0538285241      2.08E-04
    7    -119.0538473850      6.37E-06 Convergence criterion met
 ---------------------------------------
 SCF time:  CPU 33.18 s  wall 11.44 s
 SCF   energy in the small basis set = -119.05384738
 Total energy in the small basis set = -119.05384738
 ----------------------------------------------------
  Cycle       Energy    
 ----------------------------------------------------
    1     -16.5395119476     -1.65E+01
 Long-range K will be added via erf
 Coulomb attenuation parameter = 0.2 bohr**(-1)
 A restricted hybrid HF-DFT SCF calculation will be
 performed using Relaxed Constraint Minimization + Pulay DIIS
 Exchange:     0.2220 Hartree-Fock + 1.0000 wB97X-D + LR-HF
 Correlation:  1.0000 wB97X-D
 Using Euler-Maclaurin-Lebedev (75,302) quadrature formula
 Dispersion:   Grimme D
 SCF converges when DIIS error is below 1.0E-05
 Basis2 calculation detected. Using small basis as guess for larger.
 SCFMinFind is unable to tell whether the solution found is close.
 Resetting ReadMinima to 0 and attempting to follow guess.
 SCFMinFind following SCF Guess.
 using 3 threads for integral computing
 -------------------------------------------------------
 OpenMP Integral computing Module                
 Release: version 1.0, May 2013, Q-Chem Inc. Pittsburgh 
 -------------------------------------------------------
 using 3 threads for integral computing
 -------------------------------------------------------
 OpenMP Integral computing Module                
 Release: version 1.0, May 2013, Q-Chem Inc. Pittsburgh 
 -------------------------------------------------------
 ---------------------------------------
  Cycle       Energy         DIIS Error
 ---------------------------------------
    1    -119.0743580541      4.21E-03
    2    -119.0965168337      6.30E-04 Done RCA. Switching to DIIS
    3    -119.0974158064      4.51E-04
    4    -119.0985349562      4.69E-05
    5    -119.0985511683      1.16E-05
    6    -119.0985520845      4.44E-06 Convergence criterion met
 ---------------------------------------
 SCF time:  CPU 98.30 s  wall 33.21 s
 SCF   energy in the final basis set = -119.09855208
 Total energy in the final basis set = -119.09855208
 
 --------------------------------------------------------------
 
                    Orbital Energies (a.u.)
 --------------------------------------------------------------
 
 Alpha MOs
 -- Occupied --
-10.2734 -10.2680 -10.2679  -0.8869  -0.7835  -0.6773  -0.5515  -0.5272
 -0.5031  -0.4719  -0.4324  -0.4044  -0.3599
 -- Virtual --
  0.0687   0.0837   0.0904   0.0989   0.1247   0.1261   0.1305   0.1425
  0.1481   0.1646   0.1785   0.1911   0.2235   0.2297   0.2350   0.2442
  0.2827   0.2870   0.3137   0.3196   0.3270   0.3413   0.4579   0.4686
  0.4789   0.5038   0.5229   0.5270   0.5492   0.5540   0.5821   0.6038
  0.6047   0.6141   0.6415   0.6445   0.6576   0.6949   0.7038   0.7131
  0.7221   0.7748   0.7927   0.8234   0.8444   0.8961   0.9252   0.9679
  1.0001   1.0372   1.0644   1.1131   1.1181   1.1590   1.1782   1.2159
  1.2189   1.2279   1.2784   1.2832   1.3151   1.3385   1.3673   1.3709
  1.3874   1.3913   1.4085   1.4240   1.4506   1.4673   1.4840   1.5003
  1.5254   1.5655   1.5977   1.6161   1.6329   1.6460   1.6688   1.7098
  1.7403   2.3946   2.4311   2.4627   2.4776   2.5372   2.5877   2.6120
  2.6790   2.7267   2.7701   2.7869   2.8243   2.8635   2.9101   2.9274
  2.9326   3.0131   3.0420   3.0463   3.0503   3.0613   3.0901   3.0910
  3.1171   3.1314   3.1574   3.1749   3.2412   3.2734   3.2956   3.3157
  3.3191   3.3450   3.3516   3.3607   3.3868   3.4202   3.4267   3.4435
  3.4699   3.4957   3.5349   3.5480   3.5641   3.5718   3.6047   3.6283
  3.6390   3.6480   3.6641   3.6859   3.7145   3.7183   3.7867   3.8402
  3.8501   3.8899   3.9131   3.9488   3.9637   3.9916   4.0373   4.0712
  4.0864   4.1003   4.1378   4.1438   4.1815   4.1950   4.1991   4.2012
  4.2396   4.2481   4.2843   4.3425   4.3628   4.4043   4.4453   4.4774
  4.4804   4.5029   4.5614   4.6546   4.7651   4.7842   4.8227   4.8991
  4.9385   4.9686   4.9913   5.0314   5.0365   5.0458   5.0947   5.1619
  5.1992   5.2034   5.2145   5.2449   5.2960   5.3160   5.3479   5.3590
  5.4095   5.4428   5.4657   5.5226   5.5637   5.5845   5.6512   5.7610
  6.0874   6.3630   6.3729   6.4061   6.4416   6.4928  25.1863  25.4321
 25.4367
 --------------------------------------------------------------
 
 -----------------------------------------------------------------
                    Cartesian Multipole Moments
 -----------------------------------------------------------------
    Charge (ESU x 10^10)
                -0.0000
    Dipole Moment (Debye)
         X       0.0016      Y       0.0043      Z      -0.0092
       Tot       0.0103
    Quadrupole Moments (Debye-Ang)
        XX     -21.9200     XY       0.8997     YY     -21.6293
        XZ       0.0286     YZ      -0.0032     ZZ     -22.0915
    Octopole Moments (Debye-Ang^2)
       XXX       0.0067    XXY       0.0019    XYY       0.0725
       YYY       0.0815    XXZ      -1.8755    XYZ       0.2334
       YYZ       0.9832    XZZ      -0.1237    YZZ       0.0376
       ZZZ       0.2279
    Hexadecapole Moments (Debye-Ang^3)
      XXXX    -202.4656   XXXY      -5.9617   XXYY     -41.9886
      XYYY      -5.5582   YYYY     -45.0313   XXXZ       0.0171
      XXYZ       0.0196   XYYZ       0.0307   YYYZ      -0.0099
      XXZZ     -44.7336   XYZZ       0.3490   YYZZ     -17.7560
      XZZZ      -0.1422   YZZZ      -0.0593   ZZZZ     -73.0041
 -----------------------------------------------------------------
Archival summary:
1\1\cn0821\SP\ProcedureUnspecified\BasisUnspecified\38\r0852400\SunApr1206:51:002020SunApr1206:51:002020\0\\#,ProcedureUnspecified,BasisUnspecified,\\0,1\C\H,1,1.09259\H,1,1.09259,2,108.744\C,1,1.52186,2,91.6372,3,133.102,0\H,4,1.09075,1,111.224,2,-55.341,0\H,4,1.09081,1,117.976,2,75.3013,0\H,4,1.0924,1,103.373,2,-164.589,0\C,1,1.52624,2,128.316,3,-106.16,0\H,8,1.09019,1,111.025,2,59.9864,0\H,8,1.09133,1,118.189,2,-168.22,0\H,8,1.09293,1,103.651,2,-50.327,0\\\@

 Total job time:  48.95s(wall), 136.70s(cpu) 
 Sun Apr 12 06:51:00 2020

        *************************************************************
        *                                                           *
        *  Thank you very much for using Q-Chem.  Have a nice day.  *
        *                                                           *
        *************************************************************


