                  Welcome to Q-Chem
     A Quantum Leap Into The Future Of Chemistry


 Q-Chem 5.2 (devel), Q-Chem, Inc., Pleasanton, CA (2019)

 Yihan Shao,  Zhengting Gan,  E. Epifanovsky,  A. T. B. Gilbert,  M. Wormit,  
 J. Kussmann,  A. W. Lange,  A. Behn,  Jia Deng,  Xintian Feng,  D. Ghosh,  
 M. Goldey,  P. R. Horn,  L. D. Jacobson,  I. Kaliman,  T. Kus,  A. Landau,  
 Jie Liu,  E. I. Proynov,  R. M. Richard,  R. P. Steele,  E. J. Sundstrom,  
 H. L. Woodcock III,  P. M. Zimmerman,  D. Zuev,  B. Alam,  B. Albrecht,  
 E. Alguire,  S. A. Baeppler,  D. Barton,  Z. Benda,  Y. A. Bernard,  
 E. J. Berquist,  K. B. Bravaya,  H. Burton,  K. Carter-Fenk,  D. Casanova,  
 Chun-Min Chang,  Yunqing Chen,  A. Chien,  K. D. Closser,  M. P. Coons,  
 S. Coriani,  S. Dasgupta,  A. L. Dempwolff,  M. Diedenhofen,  Hainam Do,  
 R. G. Edgar,  Po-Tung Fang,  S. Faraji,  S. Fatehi,  Qingguo Feng,  
 J. Fosso-Tande,  J. Gayvert,  Qinghui Ge,  A. Ghysels,  G. Gidofalvi,  
 J. Gomes,  J. Gonthier,  A. Gunina,  D. Hait,  M. W. D. Hanson-Heine,  
 P. H. P. Harbach,  A. W. Hauser,  M. F. Herbst,  J. E. Herr,  
 E. G. Hohenstein,  Z. C. Holden,  Kerwin Hui,  B. C. Huynh,  T.-C. Jagau,  
 Hyunjun Ji,  B. Kaduk,  K. Khistyaev,  Jaehoon Kim,  P. Klunzinger,  K. Koh,  
 D. Kosenkov,  L. Koulias,  T. Kowalczyk,  C. M. Krauter,  A. Kunitsa,  
 Ka Un Lao,  A. Laurent,  K. V. Lawler,  Joonho Lee,  D. Lefrancois,  
 S. Lehtola,  D. S. Levine,  Yi-Pei Li,  You-Sheng Lin,  Fenglai Liu,  
 Kuan-Yu Liu,  E. Livshits,  M. Loipersberger,  A. Luenser,  P. Manohar,  
 E. Mansoor,  S. F. Manzer,  Shan-Ping Mao,  Yuezhi Mao,  N. Mardirossian,  
 A. V. Marenich,  T. Markovich,  L. A. Martinez-Martinez,  S. A. Maurer,  
 N. J. Mayhall,  S. C. McKenzie,  J.-M. Mewes,  P. Morgante,  A. F. Morrison,  
 J. W. Mullinax,  K. Nanda,  T. S. Nguyen-Beck,  R. Olivares-Amaya,  
 J. A. Parkhill,  S. K. Paul,  Zheng Pei,  T. M. Perrine,  F. Plasser,  
 P. Pokhilko,  S. Prager,  A. Prociuk,  E. Ramos,  B. Rana,  D. R. Rehn,  
 F. Rob,  M. Scheurer,  M. Schneider,  N. Sergueev,  S. M. Sharada,  
 S. Sharma,  D. W. Small,  T. Stauch,  C. J. Stein,  T. Stein,  Yu-Chuan Su,  
 S. P. Veccham,  A. J. W. Thom,  A. Tkatchenko,  T. Tsuchimochi,  
 N. M. Tubman,  L. Vogt,  M. L. Vidal,  O. Vydrov,  M. A. Watson,  J. Wenzel,  
 M. de Wergifosse,  T. A. Wesolowski,  A. White,  J. Witte,  A. Yamada,  
 Jun Yang,  K. Yao,  S. Yeganeh,  S. R. Yost,  Zhi-Qiang You,  A. Zech,  
 Igor Ying Zhang,  Xing Zhang,  Yan Zhao,  Ying Zhu,  B. R. Brooks,  
 G. K. L. Chan,  C. J. Cramer,  M. S. Gordon,  W. J. Hehre,  A. Klamt,  
 M. W. Schmidt,  C. D. Sherrill,  D. G. Truhlar,  A. Aspuru-Guzik,  R. Baer,  
 A. T. Bell,  N. A. Besley,  Jeng-Da Chai,  A. E. DePrince, III,  
 R. A. DiStasio Jr.,  A. Dreuw,  B. D. Dunietz,  T. R. Furlani,  
 Chao-Ping Hsu,  Yousung Jung,  Jing Kong,  D. S. Lambrecht,  WanZhen Liang,  
 C. Ochsenfeld,  V. A. Rassolov,  L. V. Slipchenko,  J. E. Subotnik,  
 T. Van Voorhis,  J. M. Herbert,  A. I. Krylov,  P. M. W. Gill,  M. Head-Gordon

 Contributors to earlier versions of Q-Chem not listed above: 
 R. D. Adamson,  B. Austin,  J. Baker,  G. J. O. Beran,  K. Brandhorst,  
 S. T. Brown,  E. F. C. Byrd,  A. K. Chakraborty,  C.-L. Cheng,  
 Siu Hung Chien,  D. M. Chipman,  D. L. Crittenden,  H. Dachsel,  
 R. J. Doerksen,  A. D. Dutoi,  L. Fusti-Molnar,  W. A. Goddard III,  
 A. Golubeva-Zadorozhnaya,  S. R. Gwaltney,  G. Hawkins,  A. Heyden,  
 S. Hirata,  G. Kedziora,  F. J. Keil,  C. Kelley,  Jihan Kim,  R. A. King,  
 R. Z. Khaliullin,  P. P. Korambath,  W. Kurlancheek,  A. M. Lee,  M. S. Lee,  
 S. V. Levchenko,  Ching Yeh Lin,  D. Liotard,  R. C. Lochan,  I. Lotan,  
 P. E. Maslen,  N. Nair,  D. P. O'Neill,  D. Neuhauser,  E. Neuscamman,  
 C. M. Oana,  R. Olson,  B. Peters,  R. Peverati,  P. A. Pieniazek,  
 Y. M. Rhee,  J. Ritchie,  M. A. Rohrdanz,  E. Rosta,  N. J. Russ,  
 H. F. Schaefer III,  N. E. Schultz,  N. Shenvi,  A. C. Simmonett,  A. Sodt,  
 D. Stuck,  K. S. Thanthiriwatte,  V. Vanovschi,  Tao Wang,  A. Warshel,  
 C. F. Williams,  Q. Wu,  X. Xu,  W. Zhang

 Please cite Q-Chem as follows:
 Y. Shao et al., Mol. Phys. 113, 184-215 (2015)
 DOI: 10.1080/00268976.2014.952696

 Q-Chem 5.2.2 for Intel X86 EM64T Linux

 Parts of Q-Chem use Armadillo 9.800.1 (Horizon Scraper).
 http://arma.sourceforge.net/

 Q-Chem begins on Sun Apr 12 07:41:24 2020  

Host: cn0821
0

     Scratch files written to /tmp/ypli/6721342.srvc1/qchem189410//
Warning:  Did not find "$end" marker in "$molecule" section

Checking the input file for inconsistencies... 	...done.

--------------------------------------------------------------
User input:
--------------------------------------------------------------
$rem
   JOBTYPE  sp
   EXCHANGE   omegaB97X-D
   BASIS   6-311+G(2df,2pd)
   max_scf_cycles   250
   geom_opt_max_cycles   1500
   basis2 6-31G*
   scf_algorithm rca_diis
   SYM_IGNORE  TRUE
   print_input   true
   geom_opt_dmax   80
   pop_mulliken false
   XC_GRID 000075000302
$end

$molecule
0 1
C       1.2557032603     0.0051636104     0.2706839037
C       -0.0076680310     -0.0002992799     -0.5869561840
H       1.3304770484     -0.9137019102     0.8557838767
H       1.2830538498     0.9154614576     0.8693684873
H       2.1733240226     -0.0269308722     -0.3207871339
C       -1.2785960266     -0.0061003242     0.2487973912
H       0.0145386148     -0.8738880192     -1.2427811382
H       -0.0051223272     0.8737157884     -1.2425840612
H       -1.2824167742     -0.8433439642     0.9495917328
H       -2.1544533545     0.0272429075     -0.3970485203
H       -1.3288403429     0.8426812720     0.9369766649
--------------------------------------------------------------
 ----------------------------------------------------------------
             Standard Nuclear Orientation (Angstroms)
    I     Atom           X                Y                Z
 ----------------------------------------------------------------
    1      C       1.2557032603     0.0051636104     0.2706839037
    2      C      -0.0076680310    -0.0002992799    -0.5869561840
    3      H       1.3304770484    -0.9137019102     0.8557838767
    4      H       1.2830538498     0.9154614576     0.8693684873
    5      H       2.1733240226    -0.0269308722    -0.3207871339
    6      C      -1.2785960266    -0.0061003242     0.2487973912
    7      H       0.0145386148    -0.8738880192    -1.2427811382
    8      H      -0.0051223272     0.8737157884    -1.2425840612
    9      H      -1.2824167742    -0.8433439642     0.9495917328
   10      H      -2.1544533545     0.0272429075    -0.3970485203
   11      H      -1.3288403429     0.8426812720     0.9369766649
 ----------------------------------------------------------------
 Nuclear Repulsion Energy =          82.73509243 hartrees
 There are       13 alpha and       13 beta electrons
 Requested basis set is 6-311+G(2df,2pd)
 There are 72 shells and 214 basis functions

 Total QAlloc Memory Limit   2000 MB
 Mega-Array Size       188 MB
 MEM_STATIC part       192 MB

                       Distance Matrix (Angstroms)
             C (  1)   C (  2)   H (  3)   H (  4)   H (  5)   C (  6)
   C (  2)  1.526985
   H (  3)  1.091901  2.169432
   H (  4)  1.089869  2.150689  1.829828
   H (  5)  1.092198  2.197335  1.697372  1.759873
   C (  6)  2.534419  1.521110  2.828327  2.792210  3.498659
   H (  7)  2.145646  1.092592  2.477348  3.045009  2.495549  2.156400
   H (  8)  2.152683  1.092592  3.062978  2.474163  2.531107  2.149426
   H (  9)  2.760966  2.167184  2.615524  3.111506  3.771278  1.091835
   H ( 10)  3.474985  2.155345  3.820956  3.769509  4.328788  1.088740
   H ( 11)  2.797364  2.185974  3.188016  2.613783  3.821433  1.093867
             H (  7)   H (  8)   H (  9)   H ( 10)
   H (  8)  1.747714
   H (  9)  2.547455  3.063562
   H ( 10)  2.496363  2.459892  1.825324
   H ( 11)  3.082632  2.550231  1.686711  1.768106
 
 A cutoff of  1.0D-09 yielded   2532 shell pairs
 There are     22578 function pairs (     27759 Cartesian)
 Smallest overlap matrix eigenvalue = 8.65E-05

 Scale SEOQF with 1.000000e-01/1.000000e-01/1.000000e-01

 Standard Electronic Orientation quadrupole field applied
 Nucleus-field energy     =     0.0000000006 hartrees
 Requested basis set is 6-31G(d)
 There are 28 shells and 58 basis functions
 A cutoff of  1.0D-09 yielded    402 shell pairs
 There are      1773 function pairs (      1968 Cartesian)
 Smallest overlap matrix eigenvalue = 6.79E-03
 Guess from superposition of atomic densities
 Warning:  Energy on first SCF cycle will be non-variational
 SAD guess density has 26.000000 electrons
 Long-range K will be added via erf
 Coulomb attenuation parameter = 0.2 bohr**(-1)
 A restricted hybrid HF-DFT SCF calculation will be
 performed using Relaxed Constraint Minimization + Pulay DIIS
 Exchange:     0.2220 Hartree-Fock + 1.0000 wB97X-D + LR-HF
 Correlation:  1.0000 wB97X-D
 Using Euler-Maclaurin-Lebedev (75,302) quadrature formula
 Dispersion:   Grimme D
 SCF converges when DIIS error is below 1.0E-04
 using 3 threads for integral computing
 -------------------------------------------------------
 OpenMP Integral computing Module                
 Release: version 1.0, May 2013, Q-Chem Inc. Pittsburgh 
 -------------------------------------------------------
 using 3 threads for integral computing
 -------------------------------------------------------
 OpenMP Integral computing Module                
 Release: version 1.0, May 2013, Q-Chem Inc. Pittsburgh 
 -------------------------------------------------------
 ---------------------------------------
  Cycle       Energy         DIIS Error
 ---------------------------------------
    1    -119.6199557382      1.00E-01
    2    -119.0632462675      9.02E-03
    3    -119.0844346703      2.47E-03
    4    -119.0983973056      1.69E-03
    5    -119.0990993329      2.68E-04 Done RCA. Switching to DIIS
    6    -119.0996141245      1.98E-04
    7    -119.0996311300      4.72E-06 Convergence criterion met
 ---------------------------------------
 SCF time:  CPU 33.39 s  wall 11.54 s
 SCF   energy in the small basis set = -119.09963113
 Total energy in the small basis set = -119.09963113
 ----------------------------------------------------
  Cycle       Energy    
 ----------------------------------------------------
    1     -16.5388826252     -1.65E+01
 Long-range K will be added via erf
 Coulomb attenuation parameter = 0.2 bohr**(-1)
 A restricted hybrid HF-DFT SCF calculation will be
 performed using Relaxed Constraint Minimization + Pulay DIIS
 Exchange:     0.2220 Hartree-Fock + 1.0000 wB97X-D + LR-HF
 Correlation:  1.0000 wB97X-D
 Using Euler-Maclaurin-Lebedev (75,302) quadrature formula
 Dispersion:   Grimme D
 SCF converges when DIIS error is below 1.0E-05
 Basis2 calculation detected. Using small basis as guess for larger.
 SCFMinFind is unable to tell whether the solution found is close.
 Resetting ReadMinima to 0 and attempting to follow guess.
 SCFMinFind following SCF Guess.
 using 3 threads for integral computing
 -------------------------------------------------------
 OpenMP Integral computing Module                
 Release: version 1.0, May 2013, Q-Chem Inc. Pittsburgh 
 -------------------------------------------------------
 using 3 threads for integral computing
 -------------------------------------------------------
 OpenMP Integral computing Module                
 Release: version 1.0, May 2013, Q-Chem Inc. Pittsburgh 
 -------------------------------------------------------
 ---------------------------------------
  Cycle       Energy         DIIS Error
 ---------------------------------------
    1    -119.1188687038      4.21E-03
    2    -119.1409117370      5.99E-04 Done RCA. Switching to DIIS
    3    -119.1417490193      4.20E-04
    4    -119.1427177528      4.57E-05
    5    -119.1427325796      1.01E-05
    6    -119.1427332730      3.88E-06 Convergence criterion met
 ---------------------------------------
 SCF time:  CPU 97.73 s  wall 33.08 s
 SCF   energy in the final basis set = -119.14273327
 Total energy in the final basis set = -119.14273327
 
 --------------------------------------------------------------
 
                    Orbital Energies (a.u.)
 --------------------------------------------------------------
 
 Alpha MOs
 -- Occupied --
-10.2740 -10.2653 -10.2651  -0.8813  -0.7775  -0.6781  -0.5465  -0.5259
 -0.4830  -0.4629  -0.4208  -0.4151  -0.4048
 -- Virtual --
  0.0691   0.0859   0.0909   0.0989   0.1244   0.1303   0.1334   0.1425
  0.1431   0.1697   0.1728   0.1915   0.2302   0.2396   0.2483   0.2639
  0.2794   0.2858   0.3089   0.3139   0.3340   0.3490   0.4605   0.4652
  0.4721   0.5088   0.5140   0.5194   0.5440   0.5611   0.5796   0.5902
  0.6232   0.6267   0.6403   0.6472   0.6526   0.6599   0.7097   0.7252
  0.7263   0.7669   0.8197   0.8639   0.8681   0.8697   0.8855   0.9560
  0.9996   1.0514   1.0602   1.1297   1.1470   1.1743   1.1837   1.2167
  1.2343   1.2344   1.2686   1.2765   1.2826   1.2962   1.3319   1.3743
  1.3788   1.3937   1.4064   1.4479   1.4636   1.4711   1.4778   1.4839
  1.5175   1.5742   1.6111   1.6260   1.6351   1.6468   1.6835   1.6997
  1.7517   2.3775   2.4675   2.4806   2.5004   2.5457   2.5623   2.5981
  2.6275   2.7153   2.8226   2.8298   2.8358   2.8942   2.9254   2.9284
  2.9434   2.9476   3.0083   3.0170   3.0517   3.0636   3.0755   3.1018
  3.1348   3.1411   3.1734   3.1839   3.2056   3.2206   3.2786   3.2998
  3.3226   3.3293   3.3501   3.3608   3.3908   3.4001   3.4165   3.4414
  3.4729   3.4762   3.4944   3.5286   3.5623   3.5767   3.5903   3.6174
  3.6223   3.6510   3.6752   3.7037   3.7783   3.7871   3.8678   3.8874
  3.9137   3.9326   3.9478   3.9577   3.9640   3.9983   4.0488   4.0509
  4.0779   4.0978   4.1189   4.1233   4.1640   4.1664   4.2022   4.2040
  4.2232   4.2331   4.2743   4.3806   4.3955   4.4061   4.4189   4.4203
  4.4417   4.5846   4.5882   4.5992   4.6763   4.8038   4.8095   4.8819
  4.9002   4.9546   4.9616   4.9939   5.0155   5.0312   5.0763   5.0979
  5.1441   5.2327   5.2406   5.2884   5.3066   5.3262   5.3560   5.3858
  5.4171   5.4335   5.4701   5.5117   5.5650   5.5763   5.6392   5.7535
  5.9557   6.3479   6.3697   6.4110   6.4327   6.4642  25.2045  25.4422
 25.4545
 --------------------------------------------------------------
 
 -----------------------------------------------------------------
                    Cartesian Multipole Moments
 -----------------------------------------------------------------
    Charge (ESU x 10^10)
                -0.0000
    Dipole Moment (Debye)
         X       0.0395      Y       0.0019      Z      -0.0849
       Tot       0.0937
    Quadrupole Moments (Debye-Ang)
        XX     -22.1627     XY      -0.2432     YY     -21.3807
        XZ       0.0058     YZ       0.0035     ZZ     -21.8440
    Octopole Moments (Debye-Ang^2)
       XXX       0.7895    XXY      -0.0147    XYY       0.7317
       YYY       0.0319    XXZ      -1.5263    XYZ       0.0763
       YYZ       0.4443    XZZ      -0.4722    YZZ       0.0135
       ZZZ      -0.4096
    Hexadecapole Moments (Debye-Ang^3)
      XXXX    -202.3796   XXXY      -1.2124   XXYY     -42.2338
      XYYY       0.0555   YYYY     -44.1282   XXXZ       0.5228
      XXYZ      -0.0113   XYYZ       0.1619   YYYZ       0.0190
      XXZZ     -45.3143   XYZZ       0.0283   YYZZ     -17.1326
      XZZZ      -0.9260   YZZZ       0.0012   ZZZZ     -72.1918
 -----------------------------------------------------------------
Archival summary:
1\1\cn0821\SP\ProcedureUnspecified\BasisUnspecified\38\r0852400\SunApr1207:42:132020SunApr1207:42:132020\0\\#,ProcedureUnspecified,BasisUnspecified,\\0,1\C\H,1,1.09259\H,1,1.09259,2,106.222\C,1,1.52111,2,109.554,3,-118.897,0\H,4,1.08874,1,110.25,2,55.9957,0\H,4,1.09184,1,111.008,2,-177.134,0\H,4,1.09387,1,112.401,2,-64.8224,0\C,1,1.52699,2,109.405,3,117.344,0\H,8,1.08987,1,109.407,2,59.6893,0\H,8,1.0919,1,110.77,2,-173.805,0\H,8,1.0922,1,113.008,2,-60.062,0\\\@

 Total job time:  49.01s(wall), 136.44s(cpu) 
 Sun Apr 12 07:42:13 2020

        *************************************************************
        *                                                           *
        *  Thank you very much for using Q-Chem.  Have a nice day.  *
        *                                                           *
        *************************************************************


