                  Welcome to Q-Chem
     A Quantum Leap Into The Future Of Chemistry


 Q-Chem 5.2 (devel), Q-Chem, Inc., Pleasanton, CA (2019)

 Yihan Shao,  Zhengting Gan,  E. Epifanovsky,  A. T. B. Gilbert,  M. Wormit,  
 J. Kussmann,  A. W. Lange,  A. Behn,  Jia Deng,  Xintian Feng,  D. Ghosh,  
 M. Goldey,  P. R. Horn,  L. D. Jacobson,  I. Kaliman,  T. Kus,  A. Landau,  
 Jie Liu,  E. I. Proynov,  R. M. Richard,  R. P. Steele,  E. J. Sundstrom,  
 H. L. Woodcock III,  P. M. Zimmerman,  D. Zuev,  B. Alam,  B. Albrecht,  
 E. Alguire,  S. A. Baeppler,  D. Barton,  Z. Benda,  Y. A. Bernard,  
 E. J. Berquist,  K. B. Bravaya,  H. Burton,  K. Carter-Fenk,  D. Casanova,  
 Chun-Min Chang,  Yunqing Chen,  A. Chien,  K. D. Closser,  M. P. Coons,  
 S. Coriani,  S. Dasgupta,  A. L. Dempwolff,  M. Diedenhofen,  Hainam Do,  
 R. G. Edgar,  Po-Tung Fang,  S. Faraji,  S. Fatehi,  Qingguo Feng,  
 J. Fosso-Tande,  J. Gayvert,  Qinghui Ge,  A. Ghysels,  G. Gidofalvi,  
 J. Gomes,  J. Gonthier,  A. Gunina,  D. Hait,  M. W. D. Hanson-Heine,  
 P. H. P. Harbach,  A. W. Hauser,  M. F. Herbst,  J. E. Herr,  
 E. G. Hohenstein,  Z. C. Holden,  Kerwin Hui,  B. C. Huynh,  T.-C. Jagau,  
 Hyunjun Ji,  B. Kaduk,  K. Khistyaev,  Jaehoon Kim,  P. Klunzinger,  K. Koh,  
 D. Kosenkov,  L. Koulias,  T. Kowalczyk,  C. M. Krauter,  A. Kunitsa,  
 Ka Un Lao,  A. Laurent,  K. V. Lawler,  Joonho Lee,  D. Lefrancois,  
 S. Lehtola,  D. S. Levine,  Yi-Pei Li,  You-Sheng Lin,  Fenglai Liu,  
 Kuan-Yu Liu,  E. Livshits,  M. Loipersberger,  A. Luenser,  P. Manohar,  
 E. Mansoor,  S. F. Manzer,  Shan-Ping Mao,  Yuezhi Mao,  N. Mardirossian,  
 A. V. Marenich,  T. Markovich,  L. A. Martinez-Martinez,  S. A. Maurer,  
 N. J. Mayhall,  S. C. McKenzie,  J.-M. Mewes,  P. Morgante,  A. F. Morrison,  
 J. W. Mullinax,  K. Nanda,  T. S. Nguyen-Beck,  R. Olivares-Amaya,  
 J. A. Parkhill,  S. K. Paul,  Zheng Pei,  T. M. Perrine,  F. Plasser,  
 P. Pokhilko,  S. Prager,  A. Prociuk,  E. Ramos,  B. Rana,  D. R. Rehn,  
 F. Rob,  M. Scheurer,  M. Schneider,  N. Sergueev,  S. M. Sharada,  
 S. Sharma,  D. W. Small,  T. Stauch,  C. J. Stein,  T. Stein,  Yu-Chuan Su,  
 S. P. Veccham,  A. J. W. Thom,  A. Tkatchenko,  T. Tsuchimochi,  
 N. M. Tubman,  L. Vogt,  M. L. Vidal,  O. Vydrov,  M. A. Watson,  J. Wenzel,  
 M. de Wergifosse,  T. A. Wesolowski,  A. White,  J. Witte,  A. Yamada,  
 Jun Yang,  K. Yao,  S. Yeganeh,  S. R. Yost,  Zhi-Qiang You,  A. Zech,  
 Igor Ying Zhang,  Xing Zhang,  Yan Zhao,  Ying Zhu,  B. R. Brooks,  
 G. K. L. Chan,  C. J. Cramer,  M. S. Gordon,  W. J. Hehre,  A. Klamt,  
 M. W. Schmidt,  C. D. Sherrill,  D. G. Truhlar,  A. Aspuru-Guzik,  R. Baer,  
 A. T. Bell,  N. A. Besley,  Jeng-Da Chai,  A. E. DePrince, III,  
 R. A. DiStasio Jr.,  A. Dreuw,  B. D. Dunietz,  T. R. Furlani,  
 Chao-Ping Hsu,  Yousung Jung,  Jing Kong,  D. S. Lambrecht,  WanZhen Liang,  
 C. Ochsenfeld,  V. A. Rassolov,  L. V. Slipchenko,  J. E. Subotnik,  
 T. Van Voorhis,  J. M. Herbert,  A. I. Krylov,  P. M. W. Gill,  M. Head-Gordon

 Contributors to earlier versions of Q-Chem not listed above: 
 R. D. Adamson,  B. Austin,  J. Baker,  G. J. O. Beran,  K. Brandhorst,  
 S. T. Brown,  E. F. C. Byrd,  A. K. Chakraborty,  C.-L. Cheng,  
 Siu Hung Chien,  D. M. Chipman,  D. L. Crittenden,  H. Dachsel,  
 R. J. Doerksen,  A. D. Dutoi,  L. Fusti-Molnar,  W. A. Goddard III,  
 A. Golubeva-Zadorozhnaya,  S. R. Gwaltney,  G. Hawkins,  A. Heyden,  
 S. Hirata,  G. Kedziora,  F. J. Keil,  C. Kelley,  Jihan Kim,  R. A. King,  
 R. Z. Khaliullin,  P. P. Korambath,  W. Kurlancheek,  A. M. Lee,  M. S. Lee,  
 S. V. Levchenko,  Ching Yeh Lin,  D. Liotard,  R. C. Lochan,  I. Lotan,  
 P. E. Maslen,  N. Nair,  D. P. O'Neill,  D. Neuhauser,  E. Neuscamman,  
 C. M. Oana,  R. Olson,  B. Peters,  R. Peverati,  P. A. Pieniazek,  
 Y. M. Rhee,  J. Ritchie,  M. A. Rohrdanz,  E. Rosta,  N. J. Russ,  
 H. F. Schaefer III,  N. E. Schultz,  N. Shenvi,  A. C. Simmonett,  A. Sodt,  
 D. Stuck,  K. S. Thanthiriwatte,  V. Vanovschi,  Tao Wang,  A. Warshel,  
 C. F. Williams,  Q. Wu,  X. Xu,  W. Zhang

 Please cite Q-Chem as follows:
 Y. Shao et al., Mol. Phys. 113, 184-215 (2015)
 DOI: 10.1080/00268976.2014.952696

 Q-Chem 5.2.2 for Intel X86 EM64T Linux

 Parts of Q-Chem use Armadillo 9.800.1 (Horizon Scraper).
 http://arma.sourceforge.net/

 Q-Chem begins on Sun Apr 12 08:32:50 2020  

Host: cn0821
0

     Scratch files written to /tmp/ypli/6721342.srvc1/qchem197145//
Warning:  Did not find "$end" marker in "$molecule" section

Checking the input file for inconsistencies... 	...done.

--------------------------------------------------------------
User input:
--------------------------------------------------------------
$rem
   JOBTYPE  sp
   EXCHANGE   omegaB97X-D
   BASIS   6-311+G(2df,2pd)
   max_scf_cycles   250
   geom_opt_max_cycles   1500
   basis2 6-31G*
   scf_algorithm rca_diis
   SYM_IGNORE  TRUE
   print_input   true
   geom_opt_dmax   80
   pop_mulliken false
   XC_GRID 000075000302
$end

$molecule
0 1
C       1.2633381960     0.0008622325     0.2758922916
C       -0.0000000653     0.0006789589     -0.5747330970
H       1.3037149382     -0.8606250145     0.9023413980
H       1.3035405423     0.8590027306     0.9001344906
H       2.2130460502     0.0005553381     -0.3825171722
C       -1.2633386383     0.0008622702     0.2758918434
H       0.0000000467     -0.8824627154     -1.2384996053
H       -0.0000000994     0.8821929919     -1.2374249877
H       -1.3037154061     -0.8606256237     0.9023416115
H       -2.2130445574     0.0005559177     -0.3825164748
H       -1.3035410675     0.8590035798     0.9001347209
--------------------------------------------------------------
 ----------------------------------------------------------------
             Standard Nuclear Orientation (Angstroms)
    I     Atom           X                Y                Z
 ----------------------------------------------------------------
    1      C       1.2633381960     0.0008622325     0.2758922916
    2      C      -0.0000000653     0.0006789589    -0.5747330970
    3      H       1.3037149382    -0.8606250145     0.9023413980
    4      H       1.3035405423     0.8590027306     0.9001344906
    5      H       2.2130460502     0.0005553381    -0.3825171722
    6      C      -1.2633386383     0.0008622702     0.2758918434
    7      H       0.0000000467    -0.8824627154    -1.2384996053
    8      H      -0.0000000994     0.8821929919    -1.2374249877
    9      H      -1.3037154061    -0.8606256237     0.9023416115
   10      H      -2.2130445574     0.0005559177    -0.3825164748
   11      H      -1.3035410675     0.8590035798     0.9001347209
 ----------------------------------------------------------------
 Nuclear Repulsion Energy =          82.63774792 hartrees
 There are       13 alpha and       13 beta electrons
 Requested basis set is 6-311+G(2df,2pd)
 There are 72 shells and 214 basis functions

 Total QAlloc Memory Limit   2000 MB
 Mega-Array Size       188 MB
 MEM_STATIC part       192 MB

                       Distance Matrix (Angstroms)
             C (  1)   C (  2)   H (  3)   H (  4)   H (  5)   C (  6)
   C (  2)  1.523019
   H (  3)  1.065940  2.150178
   H (  4)  1.061932  2.147364  1.719629
   H (  5)  1.155616  2.221378  1.794262  1.791460
   C (  6)  2.526677  1.523019  2.779274  2.777580  3.538185
   H (  7)  2.160942  1.104774  2.506661  3.050521  2.531798  2.160942
   H (  8)  2.159374  1.102827  3.052161  2.503780  2.530953  2.159374
   H (  9)  2.779274  2.150179  2.607430  3.123285  3.841888  1.065941
   H ( 10)  3.538183  2.221376  3.841886  3.840377  4.426091  1.155614
   H ( 11)  2.777581  2.147365  3.123285  2.607082  3.840379  1.061933
             H (  7)   H (  8)   H (  9)   H ( 10)
   H (  8)  1.764656
   H (  9)  2.506662  3.052162
   H ( 10)  2.531797  2.530952  1.794261
   H ( 11)  3.050521  2.503781  1.719631  1.791458
 
 A cutoff of  1.0D-09 yielded   2528 shell pairs
 There are     22554 function pairs (     27735 Cartesian)
 Smallest overlap matrix eigenvalue = 8.53E-05

 Scale SEOQF with 1.000000e-01/1.000000e-01/1.000000e-01

 Standard Electronic Orientation quadrupole field applied
 Nucleus-field energy     =     0.0000000006 hartrees
 Requested basis set is 6-31G(d)
 There are 28 shells and 58 basis functions
 A cutoff of  1.0D-09 yielded    402 shell pairs
 There are      1773 function pairs (      1968 Cartesian)
 Smallest overlap matrix eigenvalue = 6.88E-03
 Guess from superposition of atomic densities
 Warning:  Energy on first SCF cycle will be non-variational
 SAD guess density has 26.000000 electrons
 Long-range K will be added via erf
 Coulomb attenuation parameter = 0.2 bohr**(-1)
 A restricted hybrid HF-DFT SCF calculation will be
 performed using Relaxed Constraint Minimization + Pulay DIIS
 Exchange:     0.2220 Hartree-Fock + 1.0000 wB97X-D + LR-HF
 Correlation:  1.0000 wB97X-D
 Using Euler-Maclaurin-Lebedev (75,302) quadrature formula
 Dispersion:   Grimme D
 SCF converges when DIIS error is below 1.0E-04
 using 3 threads for integral computing
 -------------------------------------------------------
 OpenMP Integral computing Module                
 Release: version 1.0, May 2013, Q-Chem Inc. Pittsburgh 
 -------------------------------------------------------
 using 3 threads for integral computing
 -------------------------------------------------------
 OpenMP Integral computing Module                
 Release: version 1.0, May 2013, Q-Chem Inc. Pittsburgh 
 -------------------------------------------------------
 ---------------------------------------
  Cycle       Energy         DIIS Error
 ---------------------------------------
    1    -119.5976214165      9.99E-02
    2    -119.0602610816      8.99E-03
    3    -119.0811925039      2.39E-03
    4    -119.0953787759      1.63E-03
    5    -119.0960295537      2.48E-04 Done RCA. Switching to DIIS
    6    -119.0965161613      1.83E-04
    7    -119.0965308618      4.27E-06 Convergence criterion met
 ---------------------------------------
 SCF time:  CPU 32.80 s  wall 11.34 s
 SCF   energy in the small basis set = -119.09653086
 Total energy in the small basis set = -119.09653086
 ----------------------------------------------------
  Cycle       Energy    
 ----------------------------------------------------
    1     -16.5293722880     -1.65E+01
 Long-range K will be added via erf
 Coulomb attenuation parameter = 0.2 bohr**(-1)
 A restricted hybrid HF-DFT SCF calculation will be
 performed using Relaxed Constraint Minimization + Pulay DIIS
 Exchange:     0.2220 Hartree-Fock + 1.0000 wB97X-D + LR-HF
 Correlation:  1.0000 wB97X-D
 Using Euler-Maclaurin-Lebedev (75,302) quadrature formula
 Dispersion:   Grimme D
 SCF converges when DIIS error is below 1.0E-05
 Basis2 calculation detected. Using small basis as guess for larger.
 SCFMinFind is unable to tell whether the solution found is close.
 Resetting ReadMinima to 0 and attempting to follow guess.
 SCFMinFind following SCF Guess.
 using 3 threads for integral computing
 -------------------------------------------------------
 OpenMP Integral computing Module                
 Release: version 1.0, May 2013, Q-Chem Inc. Pittsburgh 
 -------------------------------------------------------
 using 3 threads for integral computing
 -------------------------------------------------------
 OpenMP Integral computing Module                
 Release: version 1.0, May 2013, Q-Chem Inc. Pittsburgh 
 -------------------------------------------------------
 ---------------------------------------
  Cycle       Energy         DIIS Error
 ---------------------------------------
    1    -119.1156614760      4.21E-03
    2    -119.1376710234      5.92E-04 Done RCA. Switching to DIIS
    3    -119.1384763503      4.18E-04
    4    -119.1394386439      4.65E-05
    5    -119.1394538956      1.01E-05
    6    -119.1394545937      3.79E-06 Convergence criterion met
 ---------------------------------------
 SCF time:  CPU 96.07 s  wall 32.47 s
 SCF   energy in the final basis set = -119.13945459
 Total energy in the final basis set = -119.13945459
 
 --------------------------------------------------------------
 
                    Orbital Energies (a.u.)
 --------------------------------------------------------------
 
 Alpha MOs
 -- Occupied --
-10.2765 -10.2664 -10.2664  -0.8818  -0.7766  -0.6781  -0.5488  -0.5149
 -0.4837  -0.4714  -0.4174  -0.4118  -0.4093
 -- Virtual --
  0.0681   0.0871   0.0905   0.0986   0.1258   0.1295   0.1326   0.1430
  0.1430   0.1673   0.1719   0.1920   0.2305   0.2379   0.2513   0.2622
  0.2698   0.2853   0.3106   0.3143   0.3303   0.3537   0.4620   0.4663
  0.4675   0.5105   0.5107   0.5170   0.5490   0.5578   0.5861   0.5920
  0.6096   0.6221   0.6362   0.6471   0.6497   0.6577   0.7132   0.7199
  0.7342   0.7658   0.8213   0.8677   0.8718   0.8728   0.8754   0.9608
  0.9952   1.0431   1.0607   1.1260   1.1328   1.1754   1.1795   1.2198
  1.2361   1.2373   1.2687   1.2774   1.2827   1.2947   1.3271   1.3656
  1.3782   1.3816   1.3847   1.4498   1.4672   1.4727   1.4753   1.4787
  1.5140   1.5757   1.6012   1.6256   1.6434   1.6475   1.6908   1.6991
  1.7492   2.3534   2.4786   2.4835   2.5397   2.5422   2.5670   2.5869
  2.6216   2.7134   2.8070   2.8198   2.8415   2.9160   2.9193   2.9206
  2.9356   2.9391   3.0025   3.0128   3.0605   3.0647   3.0777   3.0960
  3.1239   3.1393   3.1623   3.1882   3.2092   3.2245   3.2812   3.2975
  3.3085   3.3359   3.3424   3.3627   3.3651   3.3768   3.4087   3.4391
  3.4429   3.4727   3.4828   3.4954   3.5579   3.5635   3.5760   3.6222
  3.6321   3.6641   3.6972   3.7126   3.7758   3.7796   3.8643   3.8794
  3.9353   3.9361   3.9522   3.9570   3.9663   4.0129   4.0467   4.0537
  4.0769   4.1048   4.1166   4.1369   4.1498   4.1550   4.1829   4.1943
  4.2132   4.2303   4.2714   4.3591   4.3765   4.4034   4.4100   4.4280
  4.4434   4.5760   4.5882   4.5900   4.6370   4.7468   4.8049   4.8673
  4.9191   4.9279   4.9746   5.0012   5.0179   5.0265   5.0555   5.0731
  5.0945   5.2128   5.2345   5.2668   5.2996   5.3364   5.3676   5.3912
  5.3934   5.4014   5.4536   5.4813   5.5591   5.5747   5.6319   5.7550
  5.9394   6.3067   6.3445   6.4152   6.4471   6.4663  25.1721  25.4306
 25.4337
 --------------------------------------------------------------
 
 -----------------------------------------------------------------
                    Cartesian Multipole Moments
 -----------------------------------------------------------------
    Charge (ESU x 10^10)
                 0.0000
    Dipole Moment (Debye)
         X      -0.0000      Y       0.0052      Z       0.0263
       Tot       0.0268
    Quadrupole Moments (Debye-Ang)
        XX     -22.4094     XY      -0.0000     YY     -21.3880
        XZ       0.0000     YZ       0.0008     ZZ     -21.7936
    Octopole Moments (Debye-Ang^2)
       XXX      -0.0000    XXY       0.0047    XYY      -0.0000
       YYY      -0.0086    XXZ      -1.4986    XYZ       0.0000
       YYZ       0.4435    XZZ       0.0000    YZZ      -0.0027
       ZZZ      -0.4171
    Hexadecapole Moments (Debye-Ang^3)
      XXXX    -206.8683   XXXY      -0.0000   XXYY     -42.8054
      XYYY       0.0000   YYYY     -43.2021   XXXZ       0.0000
      XXYZ       0.0121   XYYZ       0.0000   YYYZ       0.0206
      XXZZ     -45.6743   XYZZ       0.0000   YYZZ     -16.9209
      XZZZ       0.0000   YZZZ       0.0231   ZZZZ     -71.8427
 -----------------------------------------------------------------
Archival summary:
1\1\cn0821\SP\ProcedureUnspecified\BasisUnspecified\38\r0852400\SunApr1208:33:382020SunApr1208:33:382020\0\\#,ProcedureUnspecified,BasisUnspecified,\\0,1\C\H,1,1.10283\H,1,1.10477,2,106.137\C,1,1.52302,2,109.604,3,118.293,0\H,4,1.06193,1,111.089,2,61.9424,0\H,4,1.06594,1,111.073,2,-178.038,0\H,4,1.15562,1,111.314,2,-58.0732,0\C,1,1.52302,2,109.604,3,-118.293,0\H,8,1.06193,1,111.089,2,-61.9424,0\H,8,1.06594,1,111.073,2,178.038,0\H,8,1.15561,1,111.314,2,58.0732,0\\\@

 Total job time:  47.99s(wall), 133.99s(cpu) 
 Sun Apr 12 08:33:38 2020

        *************************************************************
        *                                                           *
        *  Thank you very much for using Q-Chem.  Have a nice day.  *
        *                                                           *
        *************************************************************


