                  Welcome to Q-Chem
     A Quantum Leap Into The Future Of Chemistry


 Q-Chem 5.2 (devel), Q-Chem, Inc., Pleasanton, CA (2019)

 Yihan Shao,  Zhengting Gan,  E. Epifanovsky,  A. T. B. Gilbert,  M. Wormit,  
 J. Kussmann,  A. W. Lange,  A. Behn,  Jia Deng,  Xintian Feng,  D. Ghosh,  
 M. Goldey,  P. R. Horn,  L. D. Jacobson,  I. Kaliman,  T. Kus,  A. Landau,  
 Jie Liu,  E. I. Proynov,  R. M. Richard,  R. P. Steele,  E. J. Sundstrom,  
 H. L. Woodcock III,  P. M. Zimmerman,  D. Zuev,  B. Alam,  B. Albrecht,  
 E. Alguire,  S. A. Baeppler,  D. Barton,  Z. Benda,  Y. A. Bernard,  
 E. J. Berquist,  K. B. Bravaya,  H. Burton,  K. Carter-Fenk,  D. Casanova,  
 Chun-Min Chang,  Yunqing Chen,  A. Chien,  K. D. Closser,  M. P. Coons,  
 S. Coriani,  S. Dasgupta,  A. L. Dempwolff,  M. Diedenhofen,  Hainam Do,  
 R. G. Edgar,  Po-Tung Fang,  S. Faraji,  S. Fatehi,  Qingguo Feng,  
 J. Fosso-Tande,  J. Gayvert,  Qinghui Ge,  A. Ghysels,  G. Gidofalvi,  
 J. Gomes,  J. Gonthier,  A. Gunina,  D. Hait,  M. W. D. Hanson-Heine,  
 P. H. P. Harbach,  A. W. Hauser,  M. F. Herbst,  J. E. Herr,  
 E. G. Hohenstein,  Z. C. Holden,  Kerwin Hui,  B. C. Huynh,  T.-C. Jagau,  
 Hyunjun Ji,  B. Kaduk,  K. Khistyaev,  Jaehoon Kim,  P. Klunzinger,  K. Koh,  
 D. Kosenkov,  L. Koulias,  T. Kowalczyk,  C. M. Krauter,  A. Kunitsa,  
 Ka Un Lao,  A. Laurent,  K. V. Lawler,  Joonho Lee,  D. Lefrancois,  
 S. Lehtola,  D. S. Levine,  Yi-Pei Li,  You-Sheng Lin,  Fenglai Liu,  
 Kuan-Yu Liu,  E. Livshits,  M. Loipersberger,  A. Luenser,  P. Manohar,  
 E. Mansoor,  S. F. Manzer,  Shan-Ping Mao,  Yuezhi Mao,  N. Mardirossian,  
 A. V. Marenich,  T. Markovich,  L. A. Martinez-Martinez,  S. A. Maurer,  
 N. J. Mayhall,  S. C. McKenzie,  J.-M. Mewes,  P. Morgante,  A. F. Morrison,  
 J. W. Mullinax,  K. Nanda,  T. S. Nguyen-Beck,  R. Olivares-Amaya,  
 J. A. Parkhill,  S. K. Paul,  Zheng Pei,  T. M. Perrine,  F. Plasser,  
 P. Pokhilko,  S. Prager,  A. Prociuk,  E. Ramos,  B. Rana,  D. R. Rehn,  
 F. Rob,  M. Scheurer,  M. Schneider,  N. Sergueev,  S. M. Sharada,  
 S. Sharma,  D. W. Small,  T. Stauch,  C. J. Stein,  T. Stein,  Yu-Chuan Su,  
 S. P. Veccham,  A. J. W. Thom,  A. Tkatchenko,  T. Tsuchimochi,  
 N. M. Tubman,  L. Vogt,  M. L. Vidal,  O. Vydrov,  M. A. Watson,  J. Wenzel,  
 M. de Wergifosse,  T. A. Wesolowski,  A. White,  J. Witte,  A. Yamada,  
 Jun Yang,  K. Yao,  S. Yeganeh,  S. R. Yost,  Zhi-Qiang You,  A. Zech,  
 Igor Ying Zhang,  Xing Zhang,  Yan Zhao,  Ying Zhu,  B. R. Brooks,  
 G. K. L. Chan,  C. J. Cramer,  M. S. Gordon,  W. J. Hehre,  A. Klamt,  
 M. W. Schmidt,  C. D. Sherrill,  D. G. Truhlar,  A. Aspuru-Guzik,  R. Baer,  
 A. T. Bell,  N. A. Besley,  Jeng-Da Chai,  A. E. DePrince, III,  
 R. A. DiStasio Jr.,  A. Dreuw,  B. D. Dunietz,  T. R. Furlani,  
 Chao-Ping Hsu,  Yousung Jung,  Jing Kong,  D. S. Lambrecht,  WanZhen Liang,  
 C. Ochsenfeld,  V. A. Rassolov,  L. V. Slipchenko,  J. E. Subotnik,  
 T. Van Voorhis,  J. M. Herbert,  A. I. Krylov,  P. M. W. Gill,  M. Head-Gordon

 Contributors to earlier versions of Q-Chem not listed above: 
 R. D. Adamson,  B. Austin,  J. Baker,  G. J. O. Beran,  K. Brandhorst,  
 S. T. Brown,  E. F. C. Byrd,  A. K. Chakraborty,  C.-L. Cheng,  
 Siu Hung Chien,  D. M. Chipman,  D. L. Crittenden,  H. Dachsel,  
 R. J. Doerksen,  A. D. Dutoi,  L. Fusti-Molnar,  W. A. Goddard III,  
 A. Golubeva-Zadorozhnaya,  S. R. Gwaltney,  G. Hawkins,  A. Heyden,  
 S. Hirata,  G. Kedziora,  F. J. Keil,  C. Kelley,  Jihan Kim,  R. A. King,  
 R. Z. Khaliullin,  P. P. Korambath,  W. Kurlancheek,  A. M. Lee,  M. S. Lee,  
 S. V. Levchenko,  Ching Yeh Lin,  D. Liotard,  R. C. Lochan,  I. Lotan,  
 P. E. Maslen,  N. Nair,  D. P. O'Neill,  D. Neuhauser,  E. Neuscamman,  
 C. M. Oana,  R. Olson,  B. Peters,  R. Peverati,  P. A. Pieniazek,  
 Y. M. Rhee,  J. Ritchie,  M. A. Rohrdanz,  E. Rosta,  N. J. Russ,  
 H. F. Schaefer III,  N. E. Schultz,  N. Shenvi,  A. C. Simmonett,  A. Sodt,  
 D. Stuck,  K. S. Thanthiriwatte,  V. Vanovschi,  Tao Wang,  A. Warshel,  
 C. F. Williams,  Q. Wu,  X. Xu,  W. Zhang

 Please cite Q-Chem as follows:
 Y. Shao et al., Mol. Phys. 113, 184-215 (2015)
 DOI: 10.1080/00268976.2014.952696

 Q-Chem 5.2.2 for Intel X86 EM64T Linux

 Parts of Q-Chem use Armadillo 9.800.1 (Horizon Scraper).
 http://arma.sourceforge.net/

 Q-Chem begins on Sun Apr 12 06:39:25 2020  

Host: cn0821
0

     Scratch files written to /tmp/ypli/6721342.srvc1/qchem179670//
Warning:  Did not find "$end" marker in "$molecule" section

Checking the input file for inconsistencies... 	...done.

--------------------------------------------------------------
User input:
--------------------------------------------------------------
$rem
   JOBTYPE  sp
   EXCHANGE   omegaB97X-D
   BASIS   6-311+G(2df,2pd)
   max_scf_cycles   250
   geom_opt_max_cycles   1500
   basis2 6-31G*
   scf_algorithm rca_diis
   SYM_IGNORE  TRUE
   print_input   true
   geom_opt_dmax   80
   pop_mulliken false
   XC_GRID 000075000302
$end

$molecule
0 1
C       1.2664458819     -0.0442287420     0.2467470636
C       0.0000000788     0.0576862727     -0.5771614756
H       1.3401858498     -0.9044699862     0.9119629298
H       1.2138113425     0.8607792031     0.8588832421
H       2.1871109751     0.0472596192     -0.3299373007
C       -1.2664457369     -0.0442287377     0.2467470648
H       0.0000004635     -0.8615515533     -1.1679347737
H       -0.0000006013     0.8851842396     -1.2891706924
H       -1.3401856458     -0.9044698740     0.9119630512
H       -2.1871108198     0.0472607696     -0.3299371493
H       -1.2138118483     0.8607794551     0.8588830593
--------------------------------------------------------------
 ----------------------------------------------------------------
             Standard Nuclear Orientation (Angstroms)
    I     Atom           X                Y                Z
 ----------------------------------------------------------------
    1      C       1.2664458819    -0.0442287420     0.2467470636
    2      C       0.0000000788     0.0576862727    -0.5771614756
    3      H       1.3401858498    -0.9044699862     0.9119629298
    4      H       1.2138113425     0.8607792031     0.8588832421
    5      H       2.1871109751     0.0472596192    -0.3299373007
    6      C      -1.2664457369    -0.0442287377     0.2467470648
    7      H       0.0000004635    -0.8615515533    -1.1679347737
    8      H      -0.0000006013     0.8851842396    -1.2891706924
    9      H      -1.3401856458    -0.9044698740     0.9119630512
   10      H      -2.1871108198     0.0472607696    -0.3299371493
   11      H      -1.2138118483     0.8607794551     0.8588830593
 ----------------------------------------------------------------
 Nuclear Repulsion Energy =          83.09976275 hartrees
 There are       13 alpha and       13 beta electrons
 Requested basis set is 6-311+G(2df,2pd)
 There are 72 shells and 214 basis functions

 Total QAlloc Memory Limit   2000 MB
 Mega-Array Size       188 MB
 MEM_STATIC part       192 MB

                       Distance Matrix (Angstroms)
             C (  1)   C (  2)   H (  3)   H (  4)   H (  5)   C (  6)
   C (  2)  1.514298
   H (  3)  1.089938  2.222461
   H (  4)  1.093856  2.044632  1.770563
   H (  5)  1.090211  2.201064  1.779154  1.738511
   C (  6)  2.532892  1.514298  2.824368  2.710245  3.502569
   H (  7)  2.067178  1.092708  2.474654  2.923654  2.512296  2.067179
   H (  8)  2.196984  1.091655  3.137507  2.467402  2.530949  2.196983
   H (  9)  2.824368  2.222461  2.680371  3.105128  3.858747  1.089938
   H ( 10)  3.502569  2.201064  3.858747  3.693424  4.374222  1.090211
   H ( 11)  2.710245  2.044632  3.105129  2.427623  3.693424  1.093856
             H (  7)   H (  8)   H (  9)   H ( 10)
   H (  8)  1.750938
   H (  9)  2.474655  3.137507
   H ( 10)  2.512297  2.530948  1.779154
   H ( 11)  2.923654  2.467401  1.770563  1.738510
 
 A cutoff of  1.0D-09 yielded   2536 shell pairs
 There are     22590 function pairs (     27771 Cartesian)
 Smallest overlap matrix eigenvalue = 8.76E-05

 Scale SEOQF with 1.000000e-01/1.000000e-01/1.000000e-01

 Standard Electronic Orientation quadrupole field applied
 Nucleus-field energy     =     0.0000000006 hartrees
 Requested basis set is 6-31G(d)
 There are 28 shells and 58 basis functions
 A cutoff of  1.0D-09 yielded    402 shell pairs
 There are      1773 function pairs (      1968 Cartesian)
 Smallest overlap matrix eigenvalue = 6.61E-03
 Guess from superposition of atomic densities
 Warning:  Energy on first SCF cycle will be non-variational
 SAD guess density has 26.000000 electrons
 Long-range K will be added via erf
 Coulomb attenuation parameter = 0.2 bohr**(-1)
 A restricted hybrid HF-DFT SCF calculation will be
 performed using Relaxed Constraint Minimization + Pulay DIIS
 Exchange:     0.2220 Hartree-Fock + 1.0000 wB97X-D + LR-HF
 Correlation:  1.0000 wB97X-D
 Using Euler-Maclaurin-Lebedev (75,302) quadrature formula
 Dispersion:   Grimme D
 SCF converges when DIIS error is below 1.0E-04
 using 3 threads for integral computing
 -------------------------------------------------------
 OpenMP Integral computing Module                
 Release: version 1.0, May 2013, Q-Chem Inc. Pittsburgh 
 -------------------------------------------------------
 using 3 threads for integral computing
 -------------------------------------------------------
 OpenMP Integral computing Module                
 Release: version 1.0, May 2013, Q-Chem Inc. Pittsburgh 
 -------------------------------------------------------
 ---------------------------------------
  Cycle       Energy         DIIS Error
 ---------------------------------------
    1    -119.6570237912      1.02E-01
    2    -119.0549043513      9.08E-03
    3    -119.0763449702      2.49E-03
    4    -119.0904488529      1.71E-03
    5    -119.0911671207      2.70E-04 Done RCA. Switching to DIIS
    6    -119.0916948386      2.00E-04
    7    -119.0917122490      4.90E-06 Convergence criterion met
 ---------------------------------------
 SCF time:  CPU 32.75 s  wall 11.28 s
 SCF   energy in the small basis set = -119.09171225
 Total energy in the small basis set = -119.09171225
 ----------------------------------------------------
  Cycle       Energy    
 ----------------------------------------------------
    1     -16.5477610148     -1.65E+01
 Long-range K will be added via erf
 Coulomb attenuation parameter = 0.2 bohr**(-1)
 A restricted hybrid HF-DFT SCF calculation will be
 performed using Relaxed Constraint Minimization + Pulay DIIS
 Exchange:     0.2220 Hartree-Fock + 1.0000 wB97X-D + LR-HF
 Correlation:  1.0000 wB97X-D
 Using Euler-Maclaurin-Lebedev (75,302) quadrature formula
 Dispersion:   Grimme D
 SCF converges when DIIS error is below 1.0E-05
 Basis2 calculation detected. Using small basis as guess for larger.
 SCFMinFind is unable to tell whether the solution found is close.
 Resetting ReadMinima to 0 and attempting to follow guess.
 SCFMinFind following SCF Guess.
 using 3 threads for integral computing
 -------------------------------------------------------
 OpenMP Integral computing Module                
 Release: version 1.0, May 2013, Q-Chem Inc. Pittsburgh 
 -------------------------------------------------------
 using 3 threads for integral computing
 -------------------------------------------------------
 OpenMP Integral computing Module                
 Release: version 1.0, May 2013, Q-Chem Inc. Pittsburgh 
 -------------------------------------------------------
 ---------------------------------------
  Cycle       Energy         DIIS Error
 ---------------------------------------
    1    -119.1112235228      4.21E-03
    2    -119.1333019142      6.04E-04 Done RCA. Switching to DIIS
    3    -119.1341475056      4.26E-04
    4    -119.1351389357      4.59E-05
    5    -119.1351539363      1.07E-05
    6    -119.1351547000      4.09E-06 Convergence criterion met
 ---------------------------------------
 SCF time:  CPU 97.88 s  wall 33.13 s
 SCF   energy in the final basis set = -119.13515470
 Total energy in the final basis set = -119.13515470
 
 --------------------------------------------------------------
 
                    Orbital Energies (a.u.)
 --------------------------------------------------------------
 
 Alpha MOs
 -- Occupied --
-10.2729 -10.2654 -10.2653  -0.8860  -0.7789  -0.6767  -0.5503  -0.5288
 -0.4855  -0.4582  -0.4290  -0.4262  -0.3848
 -- Virtual --
  0.0693   0.0856   0.0913   0.0979   0.1244   0.1298   0.1334   0.1397
  0.1439   0.1717   0.1720   0.1907   0.2298   0.2388   0.2455   0.2637
  0.2799   0.2858   0.3135   0.3205   0.3289   0.3494   0.4549   0.4680
  0.4722   0.5025   0.5095   0.5161   0.5513   0.5626   0.5869   0.5882
  0.6299   0.6300   0.6436   0.6443   0.6566   0.6600   0.7079   0.7242
  0.7254   0.7636   0.8268   0.8456   0.8700   0.8776   0.9014   0.9597
  1.0097   1.0463   1.0549   1.1264   1.1416   1.1700   1.1756   1.2019
  1.2221   1.2563   1.2897   1.2935   1.2950   1.3047   1.3495   1.3591
  1.3796   1.4037   1.4123   1.4380   1.4624   1.4714   1.4795   1.4811
  1.5196   1.5671   1.5992   1.6309   1.6337   1.6578   1.6665   1.7162
  1.7678   2.3849   2.4444   2.4917   2.5215   2.5314   2.5742   2.5923
  2.6410   2.7150   2.8059   2.8126   2.8399   2.9092   2.9176   2.9292
  2.9470   2.9791   3.0122   3.0132   3.0598   3.0777   3.0929   3.1137
  3.1226   3.1553   3.1771   3.1794   3.2290   3.2430   3.2634   3.3185
  3.3230   3.3375   3.3580   3.3603   3.3808   3.3967   3.4180   3.4196
  3.4790   3.4849   3.4955   3.5270   3.5361   3.5744   3.5865   3.5969
  3.6218   3.6920   3.7049   3.7275   3.7552   3.7798   3.8624   3.8741
  3.8980   3.9222   3.9232   3.9717   3.9974   4.0197   4.0537   4.0601
  4.0918   4.0958   4.1202   4.1555   4.1761   4.1866   4.2118   4.2425
  4.2449   4.2585   4.2714   4.3757   4.3791   4.4138   4.4460   4.4494
  4.4570   4.5265   4.5983   4.6423   4.7556   4.7919   4.7998   4.8124
  4.9013   4.9401   4.9914   4.9920   5.0394   5.0694   5.0711   5.1386
  5.1839   5.2434   5.2553   5.2721   5.3034   5.3432   5.3588   5.3819
  5.4064   5.4152   5.4721   5.5201   5.5731   5.5736   5.6267   5.7872
  5.9891   6.3799   6.3815   6.4112   6.4232   6.4690  25.2163  25.4397
 25.4675
 --------------------------------------------------------------
 
 -----------------------------------------------------------------
                    Cartesian Multipole Moments
 -----------------------------------------------------------------
    Charge (ESU x 10^10)
                 0.0000
    Dipole Moment (Debye)
         X      -0.0000      Y       0.0040      Z      -0.0891
       Tot       0.0892
    Quadrupole Moments (Debye-Ang)
        XX     -21.9684     XY      -0.0000     YY     -21.3220
        XZ      -0.0000     YZ      -0.6505     ZZ     -22.1395
    Octopole Moments (Debye-Ang^2)
       XXX      -0.0000    XXY      -0.3272    XYY      -0.0000
       YYY       0.2189    XXZ      -1.6017    XYZ       0.0000
       YYZ       0.5170    XZZ      -0.0000    YZZ       0.1396
       ZZZ      -0.3217
    Hexadecapole Moments (Debye-Ang^3)
      XXXX    -198.5458   XXXY      -0.0000   XXYY     -42.1771
      XYYY       0.0000   YYYY     -44.4255   XXXZ      -0.0000
      XXYZ      -1.0910   XYYZ       0.0000   YYYZ       0.6804
      XXZZ     -45.5184   XYZZ       0.0000   YYZZ     -17.0488
      XZZZ       0.0000   YZZZ      -0.4623   ZZZZ     -71.2092
 -----------------------------------------------------------------
Archival summary:
1\1\cn0821\SP\ProcedureUnspecified\BasisUnspecified\38\r0852400\SunApr1206:40:142020SunApr1206:40:142020\0\\#,ProcedureUnspecified,BasisUnspecified,\\0,1\C\H,1,1.09165\H,1,1.09271,2,106.562\C,1,1.5143,2,113.947,3,113.781,0\H,4,1.08994,1,116.217,2,-175.205,0\H,4,1.09021,1,114.382,2,-46.1979,0\H,4,1.09386,1,102.038,2,67.1698,0\C,1,1.5143,2,113.947,3,-113.781,0\H,8,1.08994,1,116.217,2,175.205,0\H,8,1.09021,1,114.382,2,46.1978,0\H,8,1.09386,1,102.038,2,-67.1698,0\\\@

 Total job time:  48.77s(wall), 135.97s(cpu) 
 Sun Apr 12 06:40:14 2020

        *************************************************************
        *                                                           *
        *  Thank you very much for using Q-Chem.  Have a nice day.  *
        *                                                           *
        *************************************************************


