                  Welcome to Q-Chem
     A Quantum Leap Into The Future Of Chemistry


 Q-Chem 5.2 (devel), Q-Chem, Inc., Pleasanton, CA (2019)

 Yihan Shao,  Zhengting Gan,  E. Epifanovsky,  A. T. B. Gilbert,  M. Wormit,  
 J. Kussmann,  A. W. Lange,  A. Behn,  Jia Deng,  Xintian Feng,  D. Ghosh,  
 M. Goldey,  P. R. Horn,  L. D. Jacobson,  I. Kaliman,  T. Kus,  A. Landau,  
 Jie Liu,  E. I. Proynov,  R. M. Richard,  R. P. Steele,  E. J. Sundstrom,  
 H. L. Woodcock III,  P. M. Zimmerman,  D. Zuev,  B. Alam,  B. Albrecht,  
 E. Alguire,  S. A. Baeppler,  D. Barton,  Z. Benda,  Y. A. Bernard,  
 E. J. Berquist,  K. B. Bravaya,  H. Burton,  K. Carter-Fenk,  D. Casanova,  
 Chun-Min Chang,  Yunqing Chen,  A. Chien,  K. D. Closser,  M. P. Coons,  
 S. Coriani,  S. Dasgupta,  A. L. Dempwolff,  M. Diedenhofen,  Hainam Do,  
 R. G. Edgar,  Po-Tung Fang,  S. Faraji,  S. Fatehi,  Qingguo Feng,  
 J. Fosso-Tande,  J. Gayvert,  Qinghui Ge,  A. Ghysels,  G. Gidofalvi,  
 J. Gomes,  J. Gonthier,  A. Gunina,  D. Hait,  M. W. D. Hanson-Heine,  
 P. H. P. Harbach,  A. W. Hauser,  M. F. Herbst,  J. E. Herr,  
 E. G. Hohenstein,  Z. C. Holden,  Kerwin Hui,  B. C. Huynh,  T.-C. Jagau,  
 Hyunjun Ji,  B. Kaduk,  K. Khistyaev,  Jaehoon Kim,  P. Klunzinger,  K. Koh,  
 D. Kosenkov,  L. Koulias,  T. Kowalczyk,  C. M. Krauter,  A. Kunitsa,  
 Ka Un Lao,  A. Laurent,  K. V. Lawler,  Joonho Lee,  D. Lefrancois,  
 S. Lehtola,  D. S. Levine,  Yi-Pei Li,  You-Sheng Lin,  Fenglai Liu,  
 Kuan-Yu Liu,  E. Livshits,  M. Loipersberger,  A. Luenser,  P. Manohar,  
 E. Mansoor,  S. F. Manzer,  Shan-Ping Mao,  Yuezhi Mao,  N. Mardirossian,  
 A. V. Marenich,  T. Markovich,  L. A. Martinez-Martinez,  S. A. Maurer,  
 N. J. Mayhall,  S. C. McKenzie,  J.-M. Mewes,  P. Morgante,  A. F. Morrison,  
 J. W. Mullinax,  K. Nanda,  T. S. Nguyen-Beck,  R. Olivares-Amaya,  
 J. A. Parkhill,  S. K. Paul,  Zheng Pei,  T. M. Perrine,  F. Plasser,  
 P. Pokhilko,  S. Prager,  A. Prociuk,  E. Ramos,  B. Rana,  D. R. Rehn,  
 F. Rob,  M. Scheurer,  M. Schneider,  N. Sergueev,  S. M. Sharada,  
 S. Sharma,  D. W. Small,  T. Stauch,  C. J. Stein,  T. Stein,  Yu-Chuan Su,  
 S. P. Veccham,  A. J. W. Thom,  A. Tkatchenko,  T. Tsuchimochi,  
 N. M. Tubman,  L. Vogt,  M. L. Vidal,  O. Vydrov,  M. A. Watson,  J. Wenzel,  
 M. de Wergifosse,  T. A. Wesolowski,  A. White,  J. Witte,  A. Yamada,  
 Jun Yang,  K. Yao,  S. Yeganeh,  S. R. Yost,  Zhi-Qiang You,  A. Zech,  
 Igor Ying Zhang,  Xing Zhang,  Yan Zhao,  Ying Zhu,  B. R. Brooks,  
 G. K. L. Chan,  C. J. Cramer,  M. S. Gordon,  W. J. Hehre,  A. Klamt,  
 M. W. Schmidt,  C. D. Sherrill,  D. G. Truhlar,  A. Aspuru-Guzik,  R. Baer,  
 A. T. Bell,  N. A. Besley,  Jeng-Da Chai,  A. E. DePrince, III,  
 R. A. DiStasio Jr.,  A. Dreuw,  B. D. Dunietz,  T. R. Furlani,  
 Chao-Ping Hsu,  Yousung Jung,  Jing Kong,  D. S. Lambrecht,  WanZhen Liang,  
 C. Ochsenfeld,  V. A. Rassolov,  L. V. Slipchenko,  J. E. Subotnik,  
 T. Van Voorhis,  J. M. Herbert,  A. I. Krylov,  P. M. W. Gill,  M. Head-Gordon

 Contributors to earlier versions of Q-Chem not listed above: 
 R. D. Adamson,  B. Austin,  J. Baker,  G. J. O. Beran,  K. Brandhorst,  
 S. T. Brown,  E. F. C. Byrd,  A. K. Chakraborty,  C.-L. Cheng,  
 Siu Hung Chien,  D. M. Chipman,  D. L. Crittenden,  H. Dachsel,  
 R. J. Doerksen,  A. D. Dutoi,  L. Fusti-Molnar,  W. A. Goddard III,  
 A. Golubeva-Zadorozhnaya,  S. R. Gwaltney,  G. Hawkins,  A. Heyden,  
 S. Hirata,  G. Kedziora,  F. J. Keil,  C. Kelley,  Jihan Kim,  R. A. King,  
 R. Z. Khaliullin,  P. P. Korambath,  W. Kurlancheek,  A. M. Lee,  M. S. Lee,  
 S. V. Levchenko,  Ching Yeh Lin,  D. Liotard,  R. C. Lochan,  I. Lotan,  
 P. E. Maslen,  N. Nair,  D. P. O'Neill,  D. Neuhauser,  E. Neuscamman,  
 C. M. Oana,  R. Olson,  B. Peters,  R. Peverati,  P. A. Pieniazek,  
 Y. M. Rhee,  J. Ritchie,  M. A. Rohrdanz,  E. Rosta,  N. J. Russ,  
 H. F. Schaefer III,  N. E. Schultz,  N. Shenvi,  A. C. Simmonett,  A. Sodt,  
 D. Stuck,  K. S. Thanthiriwatte,  V. Vanovschi,  Tao Wang,  A. Warshel,  
 C. F. Williams,  Q. Wu,  X. Xu,  W. Zhang

 Please cite Q-Chem as follows:
 Y. Shao et al., Mol. Phys. 113, 184-215 (2015)
 DOI: 10.1080/00268976.2014.952696

 Q-Chem 5.2.2 for Intel X86 EM64T Linux

 Parts of Q-Chem use Armadillo 9.800.1 (Horizon Scraper).
 http://arma.sourceforge.net/

 Q-Chem begins on Sun Apr 12 06:22:51 2020  

Host: cn0821
0

     Scratch files written to /tmp/ypli/6721342.srvc1/qchem177228//
Warning:  Did not find "$end" marker in "$molecule" section

Checking the input file for inconsistencies... 	...done.

--------------------------------------------------------------
User input:
--------------------------------------------------------------
$rem
   JOBTYPE  sp
   EXCHANGE   omegaB97X-D
   BASIS   6-311+G(2df,2pd)
   max_scf_cycles   250
   geom_opt_max_cycles   1500
   basis2 6-31G*
   scf_algorithm rca_diis
   SYM_IGNORE  TRUE
   print_input   true
   geom_opt_dmax   80
   pop_mulliken false
   XC_GRID 000075000302
$end

$molecule
0 1
C       1.2170938870     0.0007736770     0.2175783510
C       0.0799187962     0.0000072304     -0.5851424322
H       1.2568072417     -0.8861644254     0.8503501483
H       1.2603999426     0.8859258396     0.8525181011
H       2.0957441496     0.0006296542     -0.4281584463
C       -1.3213125488     -0.0008085301     0.2976723937
H       0.1814930400     -0.8715229446     -1.2361971379
H       0.1792275681     0.8716617704     -1.2363802960
H       -1.3586002330     -0.8748306471     0.9537321684
H       -2.2357620864     -0.0007249903     -0.2964865852
H       -1.3550098177     0.8750540320     0.9515587540
--------------------------------------------------------------
 ----------------------------------------------------------------
             Standard Nuclear Orientation (Angstroms)
    I     Atom           X                Y                Z
 ----------------------------------------------------------------
    1      C       1.2170938870     0.0007736770     0.2175783510
    2      C       0.0799187962     0.0000072304    -0.5851424322
    3      H       1.2568072417    -0.8861644254     0.8503501483
    4      H       1.2603999426     0.8859258396     0.8525181011
    5      H       2.0957441496     0.0006296542    -0.4281584463
    6      C      -1.3213125488    -0.0008085301     0.2976723937
    7      H       0.1814930400    -0.8715229446    -1.2361971379
    8      H       0.1792275681     0.8716617704    -1.2363802960
    9      H      -1.3586002330    -0.8748306471     0.9537321684
   10      H      -2.2357620864    -0.0007249903    -0.2964865852
   11      H      -1.3550098177     0.8750540320     0.9515587540
 ----------------------------------------------------------------
 Nuclear Repulsion Energy =          82.96414873 hartrees
 There are       13 alpha and       13 beta electrons
 Requested basis set is 6-311+G(2df,2pd)
 There are 72 shells and 214 basis functions

 Total QAlloc Memory Limit   2000 MB
 Mega-Array Size       188 MB
 MEM_STATIC part       192 MB

                       Distance Matrix (Angstroms)
             C (  1)   C (  2)   H (  3)   H (  4)   H (  5)   C (  6)
   C (  2)  1.391951
   H (  3)  1.090246  2.056941
   H (  4)  1.090192  2.060402  1.772095
   H (  5)  1.090414  2.021929  1.767711  1.766828
   C (  6)  2.539670  1.656144  2.781368  2.785568  3.493295
   H (  7)  1.986664  1.092591  2.347380  2.935200  2.253427  2.317180
   H (  8)  1.987362  1.092591  2.933526  2.352155  2.254985  2.316494
   H (  9)  2.818298  2.280968  2.617474  3.157478  3.822113  1.093490
   H ( 10)  3.490914  2.333603  3.781174  3.785434  4.333507  1.090524
   H ( 11)  2.814038  2.277318  3.151781  2.617307  3.817845  1.093544
             H (  7)   H (  8)   H (  9)   H ( 10)
   H (  8)  1.743186
   H (  9)  2.677254  3.195582
   H ( 10)  2.735775  2.734343  1.759693
   H ( 11)  3.193376  2.672260  1.749890  1.760776
 
 A cutoff of  1.0D-09 yielded   2534 shell pairs
 There are     22588 function pairs (     27769 Cartesian)
 Smallest overlap matrix eigenvalue = 7.23E-05

 Scale SEOQF with 1.000000e-01/1.000000e-01/1.000000e-01

 Standard Electronic Orientation quadrupole field applied
 Nucleus-field energy     =     0.0000000006 hartrees
 Requested basis set is 6-31G(d)
 There are 28 shells and 58 basis functions
 A cutoff of  1.0D-09 yielded    402 shell pairs
 There are      1773 function pairs (      1968 Cartesian)
 Smallest overlap matrix eigenvalue = 5.66E-03
 Guess from superposition of atomic densities
 Warning:  Energy on first SCF cycle will be non-variational
 SAD guess density has 26.000000 electrons
 Long-range K will be added via erf
 Coulomb attenuation parameter = 0.2 bohr**(-1)
 A restricted hybrid HF-DFT SCF calculation will be
 performed using Relaxed Constraint Minimization + Pulay DIIS
 Exchange:     0.2220 Hartree-Fock + 1.0000 wB97X-D + LR-HF
 Correlation:  1.0000 wB97X-D
 Using Euler-Maclaurin-Lebedev (75,302) quadrature formula
 Dispersion:   Grimme D
 SCF converges when DIIS error is below 1.0E-04
 using 3 threads for integral computing
 -------------------------------------------------------
 OpenMP Integral computing Module                
 Release: version 1.0, May 2013, Q-Chem Inc. Pittsburgh 
 -------------------------------------------------------
 using 3 threads for integral computing
 -------------------------------------------------------
 OpenMP Integral computing Module                
 Release: version 1.0, May 2013, Q-Chem Inc. Pittsburgh 
 -------------------------------------------------------
 ---------------------------------------
  Cycle       Energy         DIIS Error
 ---------------------------------------
    1    -119.6696586587      1.03E-01
    2    -119.0404525968      9.38E-03
    3    -119.0630015927      2.45E-03
    4    -119.0782579084      1.69E-03
    5    -119.0789444356      2.54E-04 Done RCA. Switching to DIIS
    6    -119.0794611997      1.93E-04
    7    -119.0794771173      5.21E-06 Convergence criterion met
 ---------------------------------------
 SCF time:  CPU 33.16 s  wall 11.48 s
 SCF   energy in the small basis set = -119.07947712
 Total energy in the small basis set = -119.07947712
 ----------------------------------------------------
  Cycle       Energy    
 ----------------------------------------------------
    1     -16.5532937288     -1.66E+01
 Long-range K will be added via erf
 Coulomb attenuation parameter = 0.2 bohr**(-1)
 A restricted hybrid HF-DFT SCF calculation will be
 performed using Relaxed Constraint Minimization + Pulay DIIS
 Exchange:     0.2220 Hartree-Fock + 1.0000 wB97X-D + LR-HF
 Correlation:  1.0000 wB97X-D
 Using Euler-Maclaurin-Lebedev (75,302) quadrature formula
 Dispersion:   Grimme D
 SCF converges when DIIS error is below 1.0E-05
 Basis2 calculation detected. Using small basis as guess for larger.
 SCFMinFind is unable to tell whether the solution found is close.
 Resetting ReadMinima to 0 and attempting to follow guess.
 SCFMinFind following SCF Guess.
 using 3 threads for integral computing
 -------------------------------------------------------
 OpenMP Integral computing Module                
 Release: version 1.0, May 2013, Q-Chem Inc. Pittsburgh 
 -------------------------------------------------------
 using 3 threads for integral computing
 -------------------------------------------------------
 OpenMP Integral computing Module                
 Release: version 1.0, May 2013, Q-Chem Inc. Pittsburgh 
 -------------------------------------------------------
 ---------------------------------------
  Cycle       Energy         DIIS Error
 ---------------------------------------
    1    -119.0995016008      4.21E-03
    2    -119.1215820753      5.97E-04 Done RCA. Switching to DIIS
    3    -119.1224035911      4.22E-04
    4    -119.1233716921      4.65E-05
    5    -119.1233866763      1.22E-05
    6    -119.1233875864      4.63E-06 Convergence criterion met
 ---------------------------------------
 SCF time:  CPU 95.83 s  wall 32.43 s
 SCF   energy in the final basis set = -119.12338759
 Total energy in the final basis set = -119.12338759
 
 --------------------------------------------------------------
 
                    Orbital Energies (a.u.)
 --------------------------------------------------------------
 
 Alpha MOs
 -- Occupied --
-10.2744 -10.2731 -10.2548  -0.8940  -0.7760  -0.6738  -0.5524  -0.5298
 -0.4814  -0.4641  -0.4369  -0.4024  -0.3973
 -- Virtual --
  0.0689   0.0849   0.0916   0.0984   0.1241   0.1296   0.1326   0.1421
  0.1441   0.1693   0.1733   0.1916   0.2326   0.2401   0.2425   0.2640
  0.2689   0.2826   0.2835   0.3242   0.3350   0.3681   0.4573   0.4607
  0.4770   0.4930   0.5143   0.5312   0.5491   0.5542   0.5784   0.5891
  0.6075   0.6295   0.6374   0.6578   0.6662   0.6795   0.7095   0.7277
  0.7410   0.7731   0.7944   0.8574   0.8654   0.8970   0.9057   0.9621
  1.0016   1.0544   1.0573   1.1281   1.1343   1.1734   1.1788   1.2052
  1.2188   1.2582   1.2765   1.2811   1.2893   1.3065   1.3304   1.3774
  1.3825   1.3859   1.4176   1.4409   1.4453   1.4706   1.4821   1.5063
  1.5292   1.5630   1.6113   1.6170   1.6310   1.6447   1.6696   1.6857
  1.7431   2.3721   2.4494   2.5041   2.5136   2.5410   2.6043   2.6176
  2.6589   2.6908   2.7615   2.7968   2.8360   2.9025   2.9241   2.9314
  2.9695   2.9768   2.9969   3.0288   3.0516   3.0820   3.0877   3.0959
  3.1227   3.1309   3.1747   3.1813   3.2252   3.2332   3.2843   3.3094
  3.3187   3.3280   3.3312   3.3351   3.3508   3.3618   3.3947   3.4535
  3.4648   3.4800   3.4871   3.5295   3.5693   3.5812   3.6036   3.6098
  3.6383   3.6642   3.7146   3.7234   3.7516   3.8336   3.8472   3.8705
  3.9014   3.9021   3.9805   3.9844   4.0126   4.0225   4.0318   4.0450
  4.0754   4.1157   4.1378   4.1456   4.1553   4.1742   4.1907   4.2163
  4.2194   4.2494   4.2814   4.3214   4.3497   4.4083   4.4350   4.4501
  4.4912   4.5465   4.6826   4.7102   4.7187   4.7994   4.8613   4.9120
  4.9322   4.9557   4.9637   4.9705   4.9995   5.0509   5.0668   5.1117
  5.1532   5.2074   5.2155   5.2419   5.3097   5.3273   5.3346   5.3642
  5.3690   5.3984   5.4668   5.5141   5.5533   5.5713   5.6228   5.7364
  6.1589   6.3714   6.3876   6.3930   6.4246   6.4775  25.1728  25.3698
 25.6438
 --------------------------------------------------------------
 
 -----------------------------------------------------------------
                    Cartesian Multipole Moments
 -----------------------------------------------------------------
    Charge (ESU x 10^10)
                -0.0000
    Dipole Moment (Debye)
         X       0.0848      Y       0.0002      Z      -0.0805
       Tot       0.1169
    Quadrupole Moments (Debye-Ang)
        XX     -22.0824     XY       0.0073     YY     -21.3626
        XZ      -0.6256     YZ       0.0002     ZZ     -21.8765
    Octopole Moments (Debye-Ang^2)
       XXX      -0.7584    XXY      -0.0014    XYY       0.5105
       YYY       0.0011    XXZ      -1.6339    XYZ       0.0102
       YYZ       0.4905    XZZ       0.5436    YZZ      -0.0000
       ZZZ      -0.3267
    Hexadecapole Moments (Debye-Ang^3)
      XXXX    -203.2632   XXXY       0.0041   XXYY     -42.3607
      XYYY      -0.0408   YYYY     -44.1037   XXXZ       4.8941
      XXYZ       0.0002   XYYZ       1.1316   YYYZ       0.0027
      XXZZ     -45.3715   XYZZ      -0.0014   YYZZ     -17.1565
      XZZZ       4.3316   YZZZ       0.0019   ZZZZ     -72.2385
 -----------------------------------------------------------------
Archival summary:
1\1\cn0821\SP\ProcedureUnspecified\BasisUnspecified\38\r0852400\SunApr1206:23:392020SunApr1206:23:392020\0\\#,ProcedureUnspecified,BasisUnspecified,\\0,1\C\H,1,1.09259\H,1,1.09259,2,105.828\C,1,1.39195,2,105.553,3,-111.665,0\H,4,1.09019,1,111.64,2,175.037,0\H,4,1.09025,1,111.347,2,-63.2358,0\H,4,1.09041,1,108.469,2,55.8588,0\C,1,1.65614,2,113.322,3,124.705,0\H,8,1.09052,1,114.774,2,-60.3443,0\H,8,1.09349,1,110.43,2,61.1601,0\H,8,1.09354,1,110.146,2,178.248,0\\\@

 Total job time:  48.11s(wall), 134.12s(cpu) 
 Sun Apr 12 06:23:39 2020

        *************************************************************
        *                                                           *
        *  Thank you very much for using Q-Chem.  Have a nice day.  *
        *                                                           *
        *************************************************************


