                  Welcome to Q-Chem
     A Quantum Leap Into The Future Of Chemistry


 Q-Chem 5.2 (devel), Q-Chem, Inc., Pleasanton, CA (2019)

 Yihan Shao,  Zhengting Gan,  E. Epifanovsky,  A. T. B. Gilbert,  M. Wormit,  
 J. Kussmann,  A. W. Lange,  A. Behn,  Jia Deng,  Xintian Feng,  D. Ghosh,  
 M. Goldey,  P. R. Horn,  L. D. Jacobson,  I. Kaliman,  T. Kus,  A. Landau,  
 Jie Liu,  E. I. Proynov,  R. M. Richard,  R. P. Steele,  E. J. Sundstrom,  
 H. L. Woodcock III,  P. M. Zimmerman,  D. Zuev,  B. Alam,  B. Albrecht,  
 E. Alguire,  S. A. Baeppler,  D. Barton,  Z. Benda,  Y. A. Bernard,  
 E. J. Berquist,  K. B. Bravaya,  H. Burton,  K. Carter-Fenk,  D. Casanova,  
 Chun-Min Chang,  Yunqing Chen,  A. Chien,  K. D. Closser,  M. P. Coons,  
 S. Coriani,  S. Dasgupta,  A. L. Dempwolff,  M. Diedenhofen,  Hainam Do,  
 R. G. Edgar,  Po-Tung Fang,  S. Faraji,  S. Fatehi,  Qingguo Feng,  
 J. Fosso-Tande,  J. Gayvert,  Qinghui Ge,  A. Ghysels,  G. Gidofalvi,  
 J. Gomes,  J. Gonthier,  A. Gunina,  D. Hait,  M. W. D. Hanson-Heine,  
 P. H. P. Harbach,  A. W. Hauser,  M. F. Herbst,  J. E. Herr,  
 E. G. Hohenstein,  Z. C. Holden,  Kerwin Hui,  B. C. Huynh,  T.-C. Jagau,  
 Hyunjun Ji,  B. Kaduk,  K. Khistyaev,  Jaehoon Kim,  P. Klunzinger,  K. Koh,  
 D. Kosenkov,  L. Koulias,  T. Kowalczyk,  C. M. Krauter,  A. Kunitsa,  
 Ka Un Lao,  A. Laurent,  K. V. Lawler,  Joonho Lee,  D. Lefrancois,  
 S. Lehtola,  D. S. Levine,  Yi-Pei Li,  You-Sheng Lin,  Fenglai Liu,  
 Kuan-Yu Liu,  E. Livshits,  M. Loipersberger,  A. Luenser,  P. Manohar,  
 E. Mansoor,  S. F. Manzer,  Shan-Ping Mao,  Yuezhi Mao,  N. Mardirossian,  
 A. V. Marenich,  T. Markovich,  L. A. Martinez-Martinez,  S. A. Maurer,  
 N. J. Mayhall,  S. C. McKenzie,  J.-M. Mewes,  P. Morgante,  A. F. Morrison,  
 J. W. Mullinax,  K. Nanda,  T. S. Nguyen-Beck,  R. Olivares-Amaya,  
 J. A. Parkhill,  S. K. Paul,  Zheng Pei,  T. M. Perrine,  F. Plasser,  
 P. Pokhilko,  S. Prager,  A. Prociuk,  E. Ramos,  B. Rana,  D. R. Rehn,  
 F. Rob,  M. Scheurer,  M. Schneider,  N. Sergueev,  S. M. Sharada,  
 S. Sharma,  D. W. Small,  T. Stauch,  C. J. Stein,  T. Stein,  Yu-Chuan Su,  
 S. P. Veccham,  A. J. W. Thom,  A. Tkatchenko,  T. Tsuchimochi,  
 N. M. Tubman,  L. Vogt,  M. L. Vidal,  O. Vydrov,  M. A. Watson,  J. Wenzel,  
 M. de Wergifosse,  T. A. Wesolowski,  A. White,  J. Witte,  A. Yamada,  
 Jun Yang,  K. Yao,  S. Yeganeh,  S. R. Yost,  Zhi-Qiang You,  A. Zech,  
 Igor Ying Zhang,  Xing Zhang,  Yan Zhao,  Ying Zhu,  B. R. Brooks,  
 G. K. L. Chan,  C. J. Cramer,  M. S. Gordon,  W. J. Hehre,  A. Klamt,  
 M. W. Schmidt,  C. D. Sherrill,  D. G. Truhlar,  A. Aspuru-Guzik,  R. Baer,  
 A. T. Bell,  N. A. Besley,  Jeng-Da Chai,  A. E. DePrince, III,  
 R. A. DiStasio Jr.,  A. Dreuw,  B. D. Dunietz,  T. R. Furlani,  
 Chao-Ping Hsu,  Yousung Jung,  Jing Kong,  D. S. Lambrecht,  WanZhen Liang,  
 C. Ochsenfeld,  V. A. Rassolov,  L. V. Slipchenko,  J. E. Subotnik,  
 T. Van Voorhis,  J. M. Herbert,  A. I. Krylov,  P. M. W. Gill,  M. Head-Gordon

 Contributors to earlier versions of Q-Chem not listed above: 
 R. D. Adamson,  B. Austin,  J. Baker,  G. J. O. Beran,  K. Brandhorst,  
 S. T. Brown,  E. F. C. Byrd,  A. K. Chakraborty,  C.-L. Cheng,  
 Siu Hung Chien,  D. M. Chipman,  D. L. Crittenden,  H. Dachsel,  
 R. J. Doerksen,  A. D. Dutoi,  L. Fusti-Molnar,  W. A. Goddard III,  
 A. Golubeva-Zadorozhnaya,  S. R. Gwaltney,  G. Hawkins,  A. Heyden,  
 S. Hirata,  G. Kedziora,  F. J. Keil,  C. Kelley,  Jihan Kim,  R. A. King,  
 R. Z. Khaliullin,  P. P. Korambath,  W. Kurlancheek,  A. M. Lee,  M. S. Lee,  
 S. V. Levchenko,  Ching Yeh Lin,  D. Liotard,  R. C. Lochan,  I. Lotan,  
 P. E. Maslen,  N. Nair,  D. P. O'Neill,  D. Neuhauser,  E. Neuscamman,  
 C. M. Oana,  R. Olson,  B. Peters,  R. Peverati,  P. A. Pieniazek,  
 Y. M. Rhee,  J. Ritchie,  M. A. Rohrdanz,  E. Rosta,  N. J. Russ,  
 H. F. Schaefer III,  N. E. Schultz,  N. Shenvi,  A. C. Simmonett,  A. Sodt,  
 D. Stuck,  K. S. Thanthiriwatte,  V. Vanovschi,  Tao Wang,  A. Warshel,  
 C. F. Williams,  Q. Wu,  X. Xu,  W. Zhang

 Please cite Q-Chem as follows:
 Y. Shao et al., Mol. Phys. 113, 184-215 (2015)
 DOI: 10.1080/00268976.2014.952696

 Q-Chem 5.2.2 for Intel X86 EM64T Linux

 Parts of Q-Chem use Armadillo 9.800.1 (Horizon Scraper).
 http://arma.sourceforge.net/

 Q-Chem begins on Sun Apr 12 06:44:23 2020  

Host: cn0821
0

     Scratch files written to /tmp/ypli/6721342.srvc1/qchem180419//
Warning:  Did not find "$end" marker in "$molecule" section

Checking the input file for inconsistencies... 	...done.

--------------------------------------------------------------
User input:
--------------------------------------------------------------
$rem
   JOBTYPE  sp
   EXCHANGE   omegaB97X-D
   BASIS   6-311+G(2df,2pd)
   max_scf_cycles   250
   geom_opt_max_cycles   1500
   basis2 6-31G*
   scf_algorithm rca_diis
   SYM_IGNORE  TRUE
   print_input   true
   geom_opt_dmax   80
   pop_mulliken false
   XC_GRID 000075000302
$end

$molecule
0 1
C       1.2658614381     -0.0546194788     0.2575378003
C       -0.0023937852     -0.0003625881     -0.5878281654
H       1.3176459704     -0.9007306666     0.9452931962
H       1.2909936299     0.8538345721     0.8636854952
H       2.1611763220     -0.0193989383     -0.3637444949
C       -1.2659586730     0.0541902204     0.2605899304
H       0.1729696635     -0.8605392089     -1.2382897614
H       -0.1659911851     0.8615605011     -1.2390431808
H       -1.2919090651     -0.8591526549     0.8588280957
H       -2.1645816568     0.0188608313     -0.3563803697
H       -1.3178127192     0.9063580768     0.9403964734
--------------------------------------------------------------
 ----------------------------------------------------------------
             Standard Nuclear Orientation (Angstroms)
    I     Atom           X                Y                Z
 ----------------------------------------------------------------
    1      C       1.2658614381    -0.0546194788     0.2575378003
    2      C      -0.0023937852    -0.0003625881    -0.5878281654
    3      H       1.3176459704    -0.9007306666     0.9452931962
    4      H       1.2909936299     0.8538345721     0.8636854952
    5      H       2.1611763220    -0.0193989383    -0.3637444949
    6      C      -1.2659586730     0.0541902204     0.2605899304
    7      H       0.1729696635    -0.8605392089    -1.2382897614
    8      H      -0.1659911851     0.8615605011    -1.2390431808
    9      H      -1.2919090651    -0.8591526549     0.8588280957
   10      H      -2.1645816568     0.0188608313    -0.3563803697
   11      H      -1.3178127192     0.9063580768     0.9403964734
 ----------------------------------------------------------------
 Nuclear Repulsion Energy =          82.78726758 hartrees
 There are       13 alpha and       13 beta electrons
 Requested basis set is 6-311+G(2df,2pd)
 There are 72 shells and 214 basis functions

 Total QAlloc Memory Limit   2000 MB
 Mega-Array Size       188 MB
 MEM_STATIC part       192 MB

                       Distance Matrix (Angstroms)
             C (  1)   C (  2)   H (  3)   H (  4)   H (  5)   C (  6)
   C (  2)  1.525142
   H (  3)  1.091601  2.214414
   H (  4)  1.092399  2.123534  1.756664
   H (  5)  1.090331  2.175227  1.789377  1.739638
   C (  6)  2.534159  1.522953  2.838257  2.746117  3.484317
   H (  7)  2.020252  1.092592  2.465752  2.933829  2.329230  2.270217
   H (  8)  2.264805  1.092592  3.174614  2.558189  2.637792  2.027480
   H (  9)  2.747911  2.119713  2.611318  3.099312  3.758147  1.092134
   H ( 10)  3.485719  2.174625  3.829610  3.758556  4.325933  1.090607
   H ( 11)  2.839920  2.210869  3.195502  2.610462  3.828991  1.091337
             H (  7)   H (  8)   H (  9)   H ( 10)
   H (  8)  1.755142
   H (  9)  2.558080  2.937620
   H ( 10)  2.648633  2.341709  1.734704
   H ( 11)  3.176638  2.465493  1.767584  1.785021
 
 A cutoff of  1.0D-09 yielded   2535 shell pairs
 There are     22589 function pairs (     27770 Cartesian)
 Smallest overlap matrix eigenvalue = 9.66E-05

 Scale SEOQF with 1.000000e-01/1.000000e-01/1.000000e-01

 Standard Electronic Orientation quadrupole field applied
 Nucleus-field energy     =     0.0000000006 hartrees
 Requested basis set is 6-31G(d)
 There are 28 shells and 58 basis functions
 A cutoff of  1.0D-09 yielded    402 shell pairs
 There are      1773 function pairs (      1968 Cartesian)
 Smallest overlap matrix eigenvalue = 6.98E-03
 Guess from superposition of atomic densities
 Warning:  Energy on first SCF cycle will be non-variational
 SAD guess density has 26.000000 electrons
 Long-range K will be added via erf
 Coulomb attenuation parameter = 0.2 bohr**(-1)
 A restricted hybrid HF-DFT SCF calculation will be
 performed using Relaxed Constraint Minimization + Pulay DIIS
 Exchange:     0.2220 Hartree-Fock + 1.0000 wB97X-D + LR-HF
 Correlation:  1.0000 wB97X-D
 Using Euler-Maclaurin-Lebedev (75,302) quadrature formula
 Dispersion:   Grimme D
 SCF converges when DIIS error is below 1.0E-04
 using 3 threads for integral computing
 -------------------------------------------------------
 OpenMP Integral computing Module                
 Release: version 1.0, May 2013, Q-Chem Inc. Pittsburgh 
 -------------------------------------------------------
 using 3 threads for integral computing
 -------------------------------------------------------
 OpenMP Integral computing Module                
 Release: version 1.0, May 2013, Q-Chem Inc. Pittsburgh 
 -------------------------------------------------------
 ---------------------------------------
  Cycle       Energy         DIIS Error
 ---------------------------------------
    1    -119.6275530496      1.01E-01
    2    -119.0543588050      9.01E-03
    3    -119.0755210681      2.49E-03
    4    -119.0894167581      1.71E-03
    5    -119.0901321339      2.71E-04 Done RCA. Switching to DIIS
    6    -119.0906566770      2.00E-04
    7    -119.0906740986      4.98E-06 Convergence criterion met
 ---------------------------------------
 SCF time:  CPU 33.54 s  wall 12.26 s
 SCF   energy in the small basis set = -119.09067410
 Total energy in the small basis set = -119.09067410
 ----------------------------------------------------
  Cycle       Energy    
 ----------------------------------------------------
    1     -16.5393853504     -1.65E+01
 Long-range K will be added via erf
 Coulomb attenuation parameter = 0.2 bohr**(-1)
 A restricted hybrid HF-DFT SCF calculation will be
 performed using Relaxed Constraint Minimization + Pulay DIIS
 Exchange:     0.2220 Hartree-Fock + 1.0000 wB97X-D + LR-HF
 Correlation:  1.0000 wB97X-D
 Using Euler-Maclaurin-Lebedev (75,302) quadrature formula
 Dispersion:   Grimme D
 SCF converges when DIIS error is below 1.0E-05
 Basis2 calculation detected. Using small basis as guess for larger.
 SCFMinFind is unable to tell whether the solution found is close.
 Resetting ReadMinima to 0 and attempting to follow guess.
 SCFMinFind following SCF Guess.
 using 3 threads for integral computing
 -------------------------------------------------------
 OpenMP Integral computing Module                
 Release: version 1.0, May 2013, Q-Chem Inc. Pittsburgh 
 -------------------------------------------------------
 using 3 threads for integral computing
 -------------------------------------------------------
 OpenMP Integral computing Module                
 Release: version 1.0, May 2013, Q-Chem Inc. Pittsburgh 
 -------------------------------------------------------
 ---------------------------------------
  Cycle       Energy         DIIS Error
 ---------------------------------------
    1    -119.1100972243      4.21E-03
    2    -119.1321728173      6.05E-04 Done RCA. Switching to DIIS
    3    -119.1330216301      4.26E-04
    4    -119.1340149927      4.58E-05
    5    -119.1340300234      1.04E-05
    6    -119.1340307518      4.00E-06 Convergence criterion met
 ---------------------------------------
 SCF time:  CPU 100.15 s  wall 34.11 s
 SCF   energy in the final basis set = -119.13403075
 Total energy in the final basis set = -119.13403075
 
 --------------------------------------------------------------
 
                    Orbital Energies (a.u.)
 --------------------------------------------------------------
 
 Alpha MOs
 -- Occupied --
-10.2739 -10.2659 -10.2657  -0.8826  -0.7787  -0.6776  -0.5471  -0.5249
 -0.4889  -0.4661  -0.4271  -0.4140  -0.3894
 -- Virtual --
  0.0690   0.0854   0.0908   0.0990   0.1250   0.1287   0.1323   0.1427
  0.1446   0.1703   0.1734   0.1912   0.2321   0.2360   0.2439   0.2547
  0.2821   0.2853   0.3123   0.3157   0.3312   0.3475   0.4583   0.4709
  0.4712   0.5085   0.5156   0.5198   0.5481   0.5581   0.5833   0.5917
  0.6205   0.6214   0.6402   0.6422   0.6484   0.6838   0.7090   0.7162
  0.7254   0.7686   0.8111   0.8446   0.8596   0.8872   0.8989   0.9614
  1.0020   1.0504   1.0552   1.1320   1.1348   1.1576   1.1972   1.2048
  1.2176   1.2369   1.2704   1.2831   1.3077   1.3179   1.3328   1.3793
  1.3843   1.3958   1.4068   1.4397   1.4438   1.4687   1.4764   1.4879
  1.5227   1.5739   1.6056   1.6194   1.6418   1.6468   1.6837   1.7039
  1.7321   2.3824   2.4537   2.4879   2.5037   2.5290   2.5630   2.6010
  2.6533   2.7112   2.7942   2.8228   2.8387   2.8874   2.9219   2.9278
  2.9310   2.9954   2.9963   3.0334   3.0457   3.0650   3.0811   3.0968
  3.1202   3.1234   3.1745   3.1904   3.2404   3.2673   3.2879   3.3094
  3.3228   3.3253   3.3318   3.3484   3.3818   3.4015   3.4041   3.4315
  3.4709   3.4942   3.5338   3.5376   3.5599   3.5773   3.6164   3.6251
  3.6273   3.6590   3.6791   3.7007   3.7526   3.7719   3.7974   3.8668
  3.8888   3.9223   3.9401   3.9468   3.9898   4.0199   4.0227   4.0655
  4.0839   4.1020   4.1172   4.1522   4.1556   4.1665   4.1926   4.2111
  4.2160   4.2570   4.2599   4.3146   4.3671   4.4049   4.4290   4.4427
  4.4598   4.5461   4.6215   4.6348   4.7061   4.8123   4.8192   4.8682
  4.9515   4.9684   4.9698   5.0107   5.0449   5.0578   5.0697   5.0856
  5.1934   5.2277   5.2462   5.2671   5.3079   5.3219   5.3254   5.3386
  5.3855   5.4276   5.4712   5.4890   5.5118   5.5907   5.6401   5.7439
  5.9901   6.3742   6.3811   6.3941   6.4217   6.4735  25.1980  25.4358
 25.4479
 --------------------------------------------------------------
 
 -----------------------------------------------------------------
                    Cartesian Multipole Moments
 -----------------------------------------------------------------
    Charge (ESU x 10^10)
                -0.0000
    Dipole Moment (Debye)
         X      -0.0033      Y       0.0010      Z      -0.0671
       Tot       0.0672
    Quadrupole Moments (Debye-Ang)
        XX     -22.1061     XY      -0.4752     YY     -21.4311
        XZ      -0.0168     YZ      -0.0008     ZZ     -21.9041
    Octopole Moments (Debye-Ang^2)
       XXX      -0.0108    XXY      -0.0003    XYY      -0.0352
       YYY       0.0213    XXZ      -1.6357    XYZ      -0.0769
       YYZ       0.6160    XZZ       0.0616    YZZ       0.0102
       ZZZ      -0.2442
    Hexadecapole Moments (Debye-Ang^3)
      XXXX    -202.3168   XXXY       3.0565   XXYY     -42.1443
      XYYY       2.7676   YYYY     -44.3435   XXXZ      -0.0025
      XXYZ       0.0064   XYYZ      -0.0189   YYYZ      -0.0032
      XXZZ     -45.1496   XYZZ      -0.2341   YYZZ     -17.2484
      XZZZ       0.0697   YZZZ      -0.0157   ZZZZ     -72.4043
 -----------------------------------------------------------------
Archival summary:
1\1\cn0821\SP\ProcedureUnspecified\BasisUnspecified\38\r0852400\SunApr1206:45:142020SunApr1206:45:142020\0\\#,ProcedureUnspecified,BasisUnspecified,\\0,1\C\H,1,1.09259\H,1,1.09259,2,106.874\C,1,1.52295,2,119.539,3,112.802,0\H,4,1.09061,1,111.55,2,-59.4637,0\H,4,1.09134,1,114.482,2,175.102,0\H,4,1.09213,1,107.152,2,55.2481,0\C,1,1.52514,2,99.7013,3,-124.323,0\H,8,1.09033,1,111.46,2,56.4315,0\H,8,1.0916,1,114.598,2,-69.5665,0\H,8,1.0924,1,107.284,2,171.685,0\\\@

 Total job time:  50.88s(wall), 139.13s(cpu) 
 Sun Apr 12 06:45:14 2020

        *************************************************************
        *                                                           *
        *  Thank you very much for using Q-Chem.  Have a nice day.  *
        *                                                           *
        *************************************************************


