                  Welcome to Q-Chem
     A Quantum Leap Into The Future Of Chemistry


 Q-Chem 5.2 (devel), Q-Chem, Inc., Pleasanton, CA (2019)

 Yihan Shao,  Zhengting Gan,  E. Epifanovsky,  A. T. B. Gilbert,  M. Wormit,  
 J. Kussmann,  A. W. Lange,  A. Behn,  Jia Deng,  Xintian Feng,  D. Ghosh,  
 M. Goldey,  P. R. Horn,  L. D. Jacobson,  I. Kaliman,  T. Kus,  A. Landau,  
 Jie Liu,  E. I. Proynov,  R. M. Richard,  R. P. Steele,  E. J. Sundstrom,  
 H. L. Woodcock III,  P. M. Zimmerman,  D. Zuev,  B. Alam,  B. Albrecht,  
 E. Alguire,  S. A. Baeppler,  D. Barton,  Z. Benda,  Y. A. Bernard,  
 E. J. Berquist,  K. B. Bravaya,  H. Burton,  K. Carter-Fenk,  D. Casanova,  
 Chun-Min Chang,  Yunqing Chen,  A. Chien,  K. D. Closser,  M. P. Coons,  
 S. Coriani,  S. Dasgupta,  A. L. Dempwolff,  M. Diedenhofen,  Hainam Do,  
 R. G. Edgar,  Po-Tung Fang,  S. Faraji,  S. Fatehi,  Qingguo Feng,  
 J. Fosso-Tande,  J. Gayvert,  Qinghui Ge,  A. Ghysels,  G. Gidofalvi,  
 J. Gomes,  J. Gonthier,  A. Gunina,  D. Hait,  M. W. D. Hanson-Heine,  
 P. H. P. Harbach,  A. W. Hauser,  M. F. Herbst,  J. E. Herr,  
 E. G. Hohenstein,  Z. C. Holden,  Kerwin Hui,  B. C. Huynh,  T.-C. Jagau,  
 Hyunjun Ji,  B. Kaduk,  K. Khistyaev,  Jaehoon Kim,  P. Klunzinger,  K. Koh,  
 D. Kosenkov,  L. Koulias,  T. Kowalczyk,  C. M. Krauter,  A. Kunitsa,  
 Ka Un Lao,  A. Laurent,  K. V. Lawler,  Joonho Lee,  D. Lefrancois,  
 S. Lehtola,  D. S. Levine,  Yi-Pei Li,  You-Sheng Lin,  Fenglai Liu,  
 Kuan-Yu Liu,  E. Livshits,  M. Loipersberger,  A. Luenser,  P. Manohar,  
 E. Mansoor,  S. F. Manzer,  Shan-Ping Mao,  Yuezhi Mao,  N. Mardirossian,  
 A. V. Marenich,  T. Markovich,  L. A. Martinez-Martinez,  S. A. Maurer,  
 N. J. Mayhall,  S. C. McKenzie,  J.-M. Mewes,  P. Morgante,  A. F. Morrison,  
 J. W. Mullinax,  K. Nanda,  T. S. Nguyen-Beck,  R. Olivares-Amaya,  
 J. A. Parkhill,  S. K. Paul,  Zheng Pei,  T. M. Perrine,  F. Plasser,  
 P. Pokhilko,  S. Prager,  A. Prociuk,  E. Ramos,  B. Rana,  D. R. Rehn,  
 F. Rob,  M. Scheurer,  M. Schneider,  N. Sergueev,  S. M. Sharada,  
 S. Sharma,  D. W. Small,  T. Stauch,  C. J. Stein,  T. Stein,  Yu-Chuan Su,  
 S. P. Veccham,  A. J. W. Thom,  A. Tkatchenko,  T. Tsuchimochi,  
 N. M. Tubman,  L. Vogt,  M. L. Vidal,  O. Vydrov,  M. A. Watson,  J. Wenzel,  
 M. de Wergifosse,  T. A. Wesolowski,  A. White,  J. Witte,  A. Yamada,  
 Jun Yang,  K. Yao,  S. Yeganeh,  S. R. Yost,  Zhi-Qiang You,  A. Zech,  
 Igor Ying Zhang,  Xing Zhang,  Yan Zhao,  Ying Zhu,  B. R. Brooks,  
 G. K. L. Chan,  C. J. Cramer,  M. S. Gordon,  W. J. Hehre,  A. Klamt,  
 M. W. Schmidt,  C. D. Sherrill,  D. G. Truhlar,  A. Aspuru-Guzik,  R. Baer,  
 A. T. Bell,  N. A. Besley,  Jeng-Da Chai,  A. E. DePrince, III,  
 R. A. DiStasio Jr.,  A. Dreuw,  B. D. Dunietz,  T. R. Furlani,  
 Chao-Ping Hsu,  Yousung Jung,  Jing Kong,  D. S. Lambrecht,  WanZhen Liang,  
 C. Ochsenfeld,  V. A. Rassolov,  L. V. Slipchenko,  J. E. Subotnik,  
 T. Van Voorhis,  J. M. Herbert,  A. I. Krylov,  P. M. W. Gill,  M. Head-Gordon

 Contributors to earlier versions of Q-Chem not listed above: 
 R. D. Adamson,  B. Austin,  J. Baker,  G. J. O. Beran,  K. Brandhorst,  
 S. T. Brown,  E. F. C. Byrd,  A. K. Chakraborty,  C.-L. Cheng,  
 Siu Hung Chien,  D. M. Chipman,  D. L. Crittenden,  H. Dachsel,  
 R. J. Doerksen,  A. D. Dutoi,  L. Fusti-Molnar,  W. A. Goddard III,  
 A. Golubeva-Zadorozhnaya,  S. R. Gwaltney,  G. Hawkins,  A. Heyden,  
 S. Hirata,  G. Kedziora,  F. J. Keil,  C. Kelley,  Jihan Kim,  R. A. King,  
 R. Z. Khaliullin,  P. P. Korambath,  W. Kurlancheek,  A. M. Lee,  M. S. Lee,  
 S. V. Levchenko,  Ching Yeh Lin,  D. Liotard,  R. C. Lochan,  I. Lotan,  
 P. E. Maslen,  N. Nair,  D. P. O'Neill,  D. Neuhauser,  E. Neuscamman,  
 C. M. Oana,  R. Olson,  B. Peters,  R. Peverati,  P. A. Pieniazek,  
 Y. M. Rhee,  J. Ritchie,  M. A. Rohrdanz,  E. Rosta,  N. J. Russ,  
 H. F. Schaefer III,  N. E. Schultz,  N. Shenvi,  A. C. Simmonett,  A. Sodt,  
 D. Stuck,  K. S. Thanthiriwatte,  V. Vanovschi,  Tao Wang,  A. Warshel,  
 C. F. Williams,  Q. Wu,  X. Xu,  W. Zhang

 Please cite Q-Chem as follows:
 Y. Shao et al., Mol. Phys. 113, 184-215 (2015)
 DOI: 10.1080/00268976.2014.952696

 Q-Chem 5.2.2 for Intel X86 EM64T Linux

 Parts of Q-Chem use Armadillo 9.800.1 (Horizon Scraper).
 http://arma.sourceforge.net/

 Q-Chem begins on Sun Apr 12 07:33:17 2020  

Host: cn0821
0

     Scratch files written to /tmp/ypli/6721342.srvc1/qchem188284//
Warning:  Did not find "$end" marker in "$molecule" section

Checking the input file for inconsistencies... 	...done.

--------------------------------------------------------------
User input:
--------------------------------------------------------------
$rem
   JOBTYPE  sp
   EXCHANGE   omegaB97X-D
   BASIS   6-311+G(2df,2pd)
   max_scf_cycles   250
   geom_opt_max_cycles   1500
   basis2 6-31G*
   scf_algorithm rca_diis
   SYM_IGNORE  TRUE
   print_input   true
   geom_opt_dmax   80
   pop_mulliken false
   XC_GRID 000075000302
$end

$molecule
0 1
C       1.2701960749     0.0587361201     0.2050423322
C       0.0000000194     0.0550100702     -0.6720290355
H       1.4218209099     -0.7724230896     0.9069690597
H       1.1296316694     0.8150569082     0.9769743046
H       2.1062224302     -0.1756344202     -0.4500381147
C       -1.2701963555     0.0587368526     0.2050421660
H       -0.0000007327     -0.9386372567     -1.1119890974
H       0.0000001521     1.0321584221     -1.1528312081
H       -1.4218233892     -0.7724228717     0.9069679944
H       -2.1062220291     -0.1756367912     -0.4500377855
H       -1.1296288100     0.8150567222     0.9769744032
--------------------------------------------------------------
 ----------------------------------------------------------------
             Standard Nuclear Orientation (Angstroms)
    I     Atom           X                Y                Z
 ----------------------------------------------------------------
    1      C       1.2701960749     0.0587361201     0.2050423322
    2      C       0.0000000194     0.0550100702    -0.6720290355
    3      H       1.4218209099    -0.7724230896     0.9069690597
    4      H       1.1296316694     0.8150569082     0.9769743046
    5      H       2.1062224302    -0.1756344202    -0.4500381147
    6      C      -1.2701963555     0.0587368526     0.2050421660
    7      H      -0.0000007327    -0.9386372567    -1.1119890974
    8      H       0.0000001521     1.0321584221    -1.1528312081
    9      H      -1.4218233892    -0.7724228717     0.9069679944
   10      H      -2.1062220291    -0.1756367912    -0.4500377855
   11      H      -1.1296288100     0.8150567222     0.9769744032
 ----------------------------------------------------------------
 Nuclear Repulsion Energy =          82.71516350 hartrees
 There are       13 alpha and       13 beta electrons
 Requested basis set is 6-311+G(2df,2pd)
 There are 72 shells and 214 basis functions

 Total QAlloc Memory Limit   2000 MB
 Mega-Array Size       188 MB
 MEM_STATIC part       192 MB

                       Distance Matrix (Angstroms)
             C (  1)   C (  2)   H (  3)   H (  4)   H (  5)   C (  6)
   C (  2)  1.543589
   H (  3)  1.098416  2.280231
   H (  4)  1.089797  2.138446  1.615663
   H (  5)  1.087658  2.130411  1.632798  1.992878
   C (  6)  2.540392  1.543589  2.903530  2.631933  3.447356
   H (  7)  2.083921  1.086692  2.474954  2.952165  2.335921  2.083920
   H (  8)  2.098754  1.089032  3.085590  2.420593  2.527618  2.098754
   H (  9)  2.903531  2.280232  2.843644  3.005814  3.826843  1.098416
   H ( 10)  3.447355  2.130411  3.826841  3.672681  4.212444  1.087658
   H ( 11)  2.631931  2.138444  3.005809  2.259260  3.672678  1.089797
             H (  7)   H (  8)   H (  9)   H ( 10)
   H (  8)  1.971219
   H (  9)  2.474953  3.085590
   H ( 10)  2.335919  2.527619  1.632795
   H ( 11)  2.952164  2.420592  1.615664  1.992880
 
 A cutoff of  1.0D-09 yielded   2544 shell pairs
 There are     22596 function pairs (     27783 Cartesian)
 Smallest overlap matrix eigenvalue = 8.55E-05

 Scale SEOQF with 1.000000e-01/1.000000e-01/1.000000e-01

 Standard Electronic Orientation quadrupole field applied
 Nucleus-field energy     =     0.0000000005 hartrees
 Requested basis set is 6-31G(d)
 There are 28 shells and 58 basis functions
 A cutoff of  1.0D-09 yielded    402 shell pairs
 There are      1773 function pairs (      1968 Cartesian)
 Smallest overlap matrix eigenvalue = 6.30E-03
 Guess from superposition of atomic densities
 Warning:  Energy on first SCF cycle will be non-variational
 SAD guess density has 26.000000 electrons
 Long-range K will be added via erf
 Coulomb attenuation parameter = 0.2 bohr**(-1)
 A restricted hybrid HF-DFT SCF calculation will be
 performed using Relaxed Constraint Minimization + Pulay DIIS
 Exchange:     0.2220 Hartree-Fock + 1.0000 wB97X-D + LR-HF
 Correlation:  1.0000 wB97X-D
 Using Euler-Maclaurin-Lebedev (75,302) quadrature formula
 Dispersion:   Grimme D
 SCF converges when DIIS error is below 1.0E-04
 using 3 threads for integral computing
 -------------------------------------------------------
 OpenMP Integral computing Module                
 Release: version 1.0, May 2013, Q-Chem Inc. Pittsburgh 
 -------------------------------------------------------
 using 3 threads for integral computing
 -------------------------------------------------------
 OpenMP Integral computing Module                
 Release: version 1.0, May 2013, Q-Chem Inc. Pittsburgh 
 -------------------------------------------------------
 ---------------------------------------
  Cycle       Energy         DIIS Error
 ---------------------------------------
    1    -119.6106229934      9.99E-02
    2    -119.0062603478      9.39E-03
    3    -119.0296505712      2.64E-03
    4    -119.0447616204      1.80E-03
    5    -119.0455775966      3.15E-04 Done RCA. Switching to DIIS
    6    -119.0461592981      2.26E-04
    7    -119.0461819228      7.92E-06 Convergence criterion met
 ---------------------------------------
 SCF time:  CPU 33.80 s  wall 11.68 s
 SCF   energy in the small basis set = -119.04618192
 Total energy in the small basis set = -119.04618192
 ----------------------------------------------------
  Cycle       Energy    
 ----------------------------------------------------
    1     -16.5243989991     -1.65E+01
 Long-range K will be added via erf
 Coulomb attenuation parameter = 0.2 bohr**(-1)
 A restricted hybrid HF-DFT SCF calculation will be
 performed using Relaxed Constraint Minimization + Pulay DIIS
 Exchange:     0.2220 Hartree-Fock + 1.0000 wB97X-D + LR-HF
 Correlation:  1.0000 wB97X-D
 Using Euler-Maclaurin-Lebedev (75,302) quadrature formula
 Dispersion:   Grimme D
 SCF converges when DIIS error is below 1.0E-05
 Basis2 calculation detected. Using small basis as guess for larger.
 SCFMinFind is unable to tell whether the solution found is close.
 Resetting ReadMinima to 0 and attempting to follow guess.
 SCFMinFind following SCF Guess.
 using 3 threads for integral computing
 -------------------------------------------------------
 OpenMP Integral computing Module                
 Release: version 1.0, May 2013, Q-Chem Inc. Pittsburgh 
 -------------------------------------------------------
 using 3 threads for integral computing
 -------------------------------------------------------
 OpenMP Integral computing Module                
 Release: version 1.0, May 2013, Q-Chem Inc. Pittsburgh 
 -------------------------------------------------------
 ---------------------------------------
  Cycle       Energy         DIIS Error
 ---------------------------------------
    1    -119.0675486219      4.22E-03
    2    -119.0895548579      6.54E-04 Done RCA. Switching to DIIS
    3    -119.0905474787      4.64E-04
    4    -119.0917304806      4.36E-05
    5    -119.0917454324      9.84E-06 Convergence criterion met
 ---------------------------------------
 SCF time:  CPU 86.04 s  wall 29.12 s
 SCF   energy in the final basis set = -119.09174543
 Total energy in the final basis set = -119.09174543
 
 --------------------------------------------------------------
 
                    Orbital Energies (a.u.)
 --------------------------------------------------------------
 
 Alpha MOs
 -- Occupied --
-10.2783 -10.2652 -10.2652  -0.8834  -0.7783  -0.6787  -0.5701  -0.5183
 -0.5096  -0.4585  -0.4095  -0.3996  -0.3811
 -- Virtual --
  0.0688   0.0858   0.0892   0.0987   0.1185   0.1234   0.1344   0.1368
  0.1387   0.1686   0.1714   0.1953   0.2018   0.2205   0.2566   0.2702
  0.2793   0.2854   0.3004   0.3065   0.3415   0.3525   0.4454   0.4707
  0.4784   0.4904   0.5158   0.5372   0.5481   0.5644   0.5830   0.5878
  0.6091   0.6148   0.6397   0.6442   0.6685   0.6785   0.7085   0.7184
  0.7225   0.7754   0.8032   0.8477   0.8752   0.8827   0.8966   0.9526
  0.9619   0.9797   1.0606   1.1304   1.1324   1.1688   1.1834   1.2324
  1.2407   1.2609   1.2690   1.2750   1.2816   1.3372   1.3597   1.3650
  1.3765   1.3891   1.4215   1.4382   1.4505   1.4591   1.4807   1.5106
  1.5296   1.5603   1.5923   1.6079   1.6253   1.6257   1.6806   1.7232
  1.7502   2.4370   2.4667   2.4813   2.4920   2.5714   2.5862   2.5951
  2.6535   2.7308   2.7564   2.8020   2.8347   2.8397   2.8810   2.8961
  2.9126   2.9379   2.9933   2.9947   3.0151   3.0729   3.0860   3.1102
  3.1283   3.1756   3.1811   3.2277   3.2361   3.2751   3.2972   3.3002
  3.3227   3.3238   3.3580   3.3860   3.4190   3.4341   3.4467   3.4599
  3.4979   3.5028   3.5370   3.5694   3.5783   3.5902   3.5915   3.6032
  3.6234   3.6349   3.6359   3.6723   3.7114   3.7299   3.7608   3.7720
  3.8351   3.8356   3.8624   3.8968   3.9147   3.9166   3.9488   3.9863
  3.9927   4.0619   4.0857   4.1220   4.1654   4.1926   4.1994   4.2276
  4.2405   4.2920   4.3353   4.3767   4.3791   4.4089   4.4507   4.4914
  4.5574   4.5813   4.6117   4.6535   4.6702   4.6891   4.7312   4.7325
  4.7767   4.8485   4.9265   4.9282   4.9879   5.0292   5.0780   5.0810
  5.1038   5.2178   5.2534   5.2705   5.3173   5.4147   5.4388   5.4853
  5.4991   5.5015   5.5939   5.6369   5.7308   5.7387   5.7741   5.8667
  6.0743   6.3528   6.4469   6.4649   6.4854   6.5225  25.1582  25.4053
 25.4233
 --------------------------------------------------------------
 
 -----------------------------------------------------------------
                    Cartesian Multipole Moments
 -----------------------------------------------------------------
    Charge (ESU x 10^10)
                -0.0000
    Dipole Moment (Debye)
         X       0.0000      Y      -0.3167      Z       0.1029
       Tot       0.3330
    Quadrupole Moments (Debye-Ang)
        XX     -22.9332     XY       0.0000     YY     -21.6464
        XZ       0.0000     YZ       0.3984     ZZ     -21.7435
    Octopole Moments (Debye-Ang^2)
       XXX       0.0000    XXY      -4.8306    XYY       0.0000
       YYY      -2.4977    XXZ      -0.8560    XYZ      -0.0000
       YYZ       0.1233    XZZ       0.0000    YZZ      -0.3523
       ZZZ       4.5036
    Hexadecapole Moments (Debye-Ang^3)
      XXXX    -206.6146   XXXY       0.0001   XXYY     -43.6919
      XYYY       0.0000   YYYY     -44.9049   XXXZ      -0.0000
      XXYZ       0.2430   XYYZ       0.0000   YYYZ      -0.2285
      XXZZ     -44.1156   XYZZ       0.0000   YYZZ     -17.6378
      XZZZ       0.0000   YZZZ       0.3221   ZZZZ     -74.7707
 -----------------------------------------------------------------
Archival summary:
1\1\cn0821\SP\ProcedureUnspecified\BasisUnspecified\38\r0852400\SunApr1207:34:022020SunApr1207:34:022020\0\\#,ProcedureUnspecified,BasisUnspecified,\\0,1\C\H,1,1.08669\H,1,1.08903,2,129.918\C,1,1.54359,2,103.43,3,-122.219,0\H,4,1.08766,1,106.844,2,56.9153,0\H,4,1.0898,1,107.338,2,-156.606,0\H,4,1.09842,1,118.351,2,-50.5877,0\C,1,1.54359,2,103.43,3,122.219,0\H,8,1.08766,1,106.844,2,-56.915,0\H,8,1.0898,1,107.338,2,156.606,0\H,8,1.09842,1,118.351,2,50.5877,0\\\@

 Total job time:  45.03s(wall), 125.00s(cpu) 
 Sun Apr 12 07:34:02 2020

        *************************************************************
        *                                                           *
        *  Thank you very much for using Q-Chem.  Have a nice day.  *
        *                                                           *
        *************************************************************


