                  Welcome to Q-Chem
     A Quantum Leap Into The Future Of Chemistry


 Q-Chem 5.2 (devel), Q-Chem, Inc., Pleasanton, CA (2019)

 Yihan Shao,  Zhengting Gan,  E. Epifanovsky,  A. T. B. Gilbert,  M. Wormit,  
 J. Kussmann,  A. W. Lange,  A. Behn,  Jia Deng,  Xintian Feng,  D. Ghosh,  
 M. Goldey,  P. R. Horn,  L. D. Jacobson,  I. Kaliman,  T. Kus,  A. Landau,  
 Jie Liu,  E. I. Proynov,  R. M. Richard,  R. P. Steele,  E. J. Sundstrom,  
 H. L. Woodcock III,  P. M. Zimmerman,  D. Zuev,  B. Alam,  B. Albrecht,  
 E. Alguire,  S. A. Baeppler,  D. Barton,  Z. Benda,  Y. A. Bernard,  
 E. J. Berquist,  K. B. Bravaya,  H. Burton,  K. Carter-Fenk,  D. Casanova,  
 Chun-Min Chang,  Yunqing Chen,  A. Chien,  K. D. Closser,  M. P. Coons,  
 S. Coriani,  S. Dasgupta,  A. L. Dempwolff,  M. Diedenhofen,  Hainam Do,  
 R. G. Edgar,  Po-Tung Fang,  S. Faraji,  S. Fatehi,  Qingguo Feng,  
 J. Fosso-Tande,  J. Gayvert,  Qinghui Ge,  A. Ghysels,  G. Gidofalvi,  
 J. Gomes,  J. Gonthier,  A. Gunina,  D. Hait,  M. W. D. Hanson-Heine,  
 P. H. P. Harbach,  A. W. Hauser,  M. F. Herbst,  J. E. Herr,  
 E. G. Hohenstein,  Z. C. Holden,  Kerwin Hui,  B. C. Huynh,  T.-C. Jagau,  
 Hyunjun Ji,  B. Kaduk,  K. Khistyaev,  Jaehoon Kim,  P. Klunzinger,  K. Koh,  
 D. Kosenkov,  L. Koulias,  T. Kowalczyk,  C. M. Krauter,  A. Kunitsa,  
 Ka Un Lao,  A. Laurent,  K. V. Lawler,  Joonho Lee,  D. Lefrancois,  
 S. Lehtola,  D. S. Levine,  Yi-Pei Li,  You-Sheng Lin,  Fenglai Liu,  
 Kuan-Yu Liu,  E. Livshits,  M. Loipersberger,  A. Luenser,  P. Manohar,  
 E. Mansoor,  S. F. Manzer,  Shan-Ping Mao,  Yuezhi Mao,  N. Mardirossian,  
 A. V. Marenich,  T. Markovich,  L. A. Martinez-Martinez,  S. A. Maurer,  
 N. J. Mayhall,  S. C. McKenzie,  J.-M. Mewes,  P. Morgante,  A. F. Morrison,  
 J. W. Mullinax,  K. Nanda,  T. S. Nguyen-Beck,  R. Olivares-Amaya,  
 J. A. Parkhill,  S. K. Paul,  Zheng Pei,  T. M. Perrine,  F. Plasser,  
 P. Pokhilko,  S. Prager,  A. Prociuk,  E. Ramos,  B. Rana,  D. R. Rehn,  
 F. Rob,  M. Scheurer,  M. Schneider,  N. Sergueev,  S. M. Sharada,  
 S. Sharma,  D. W. Small,  T. Stauch,  C. J. Stein,  T. Stein,  Yu-Chuan Su,  
 S. P. Veccham,  A. J. W. Thom,  A. Tkatchenko,  T. Tsuchimochi,  
 N. M. Tubman,  L. Vogt,  M. L. Vidal,  O. Vydrov,  M. A. Watson,  J. Wenzel,  
 M. de Wergifosse,  T. A. Wesolowski,  A. White,  J. Witte,  A. Yamada,  
 Jun Yang,  K. Yao,  S. Yeganeh,  S. R. Yost,  Zhi-Qiang You,  A. Zech,  
 Igor Ying Zhang,  Xing Zhang,  Yan Zhao,  Ying Zhu,  B. R. Brooks,  
 G. K. L. Chan,  C. J. Cramer,  M. S. Gordon,  W. J. Hehre,  A. Klamt,  
 M. W. Schmidt,  C. D. Sherrill,  D. G. Truhlar,  A. Aspuru-Guzik,  R. Baer,  
 A. T. Bell,  N. A. Besley,  Jeng-Da Chai,  A. E. DePrince, III,  
 R. A. DiStasio Jr.,  A. Dreuw,  B. D. Dunietz,  T. R. Furlani,  
 Chao-Ping Hsu,  Yousung Jung,  Jing Kong,  D. S. Lambrecht,  WanZhen Liang,  
 C. Ochsenfeld,  V. A. Rassolov,  L. V. Slipchenko,  J. E. Subotnik,  
 T. Van Voorhis,  J. M. Herbert,  A. I. Krylov,  P. M. W. Gill,  M. Head-Gordon

 Contributors to earlier versions of Q-Chem not listed above: 
 R. D. Adamson,  B. Austin,  J. Baker,  G. J. O. Beran,  K. Brandhorst,  
 S. T. Brown,  E. F. C. Byrd,  A. K. Chakraborty,  C.-L. Cheng,  
 Siu Hung Chien,  D. M. Chipman,  D. L. Crittenden,  H. Dachsel,  
 R. J. Doerksen,  A. D. Dutoi,  L. Fusti-Molnar,  W. A. Goddard III,  
 A. Golubeva-Zadorozhnaya,  S. R. Gwaltney,  G. Hawkins,  A. Heyden,  
 S. Hirata,  G. Kedziora,  F. J. Keil,  C. Kelley,  Jihan Kim,  R. A. King,  
 R. Z. Khaliullin,  P. P. Korambath,  W. Kurlancheek,  A. M. Lee,  M. S. Lee,  
 S. V. Levchenko,  Ching Yeh Lin,  D. Liotard,  R. C. Lochan,  I. Lotan,  
 P. E. Maslen,  N. Nair,  D. P. O'Neill,  D. Neuhauser,  E. Neuscamman,  
 C. M. Oana,  R. Olson,  B. Peters,  R. Peverati,  P. A. Pieniazek,  
 Y. M. Rhee,  J. Ritchie,  M. A. Rohrdanz,  E. Rosta,  N. J. Russ,  
 H. F. Schaefer III,  N. E. Schultz,  N. Shenvi,  A. C. Simmonett,  A. Sodt,  
 D. Stuck,  K. S. Thanthiriwatte,  V. Vanovschi,  Tao Wang,  A. Warshel,  
 C. F. Williams,  Q. Wu,  X. Xu,  W. Zhang

 Please cite Q-Chem as follows:
 Y. Shao et al., Mol. Phys. 113, 184-215 (2015)
 DOI: 10.1080/00268976.2014.952696

 Q-Chem 5.2.2 for Intel X86 EM64T Linux

 Parts of Q-Chem use Armadillo 9.800.1 (Horizon Scraper).
 http://arma.sourceforge.net/

 Q-Chem begins on Sun Apr 12 06:34:54 2020  

Host: cn0821
0

     Scratch files written to /tmp/ypli/6721342.srvc1/qchem179054//
Warning:  Did not find "$end" marker in "$molecule" section

Checking the input file for inconsistencies... 	...done.

--------------------------------------------------------------
User input:
--------------------------------------------------------------
$rem
   JOBTYPE  sp
   EXCHANGE   omegaB97X-D
   BASIS   6-311+G(2df,2pd)
   max_scf_cycles   250
   geom_opt_max_cycles   1500
   basis2 6-31G*
   scf_algorithm rca_diis
   SYM_IGNORE  TRUE
   print_input   true
   geom_opt_dmax   80
   pop_mulliken false
   XC_GRID 000075000302
$end

$molecule
0 1
C       1.2649743628     0.0233289834     0.2649838071
C       -0.0000000394     -0.0289237206     -0.5921704395
H       1.2841446214     -0.8678787742     0.8971742124
H       1.3486919079     0.8893268560     0.9230452097
H       2.1492564526     -0.0248082959     -0.3715160879
C       -1.2649744402     0.0233290633     0.2649837945
H       -0.0000001813     -0.8794643367     -1.2778890590
H       0.0000001488     0.8684507019     -1.2162697106
H       -1.2841446774     -0.8678787024     0.8971741648
H       -2.1492565065     -0.0248079991     -0.3715161426
H       -1.3486917094     0.8893268903     0.9230452700
--------------------------------------------------------------
 ----------------------------------------------------------------
             Standard Nuclear Orientation (Angstroms)
    I     Atom           X                Y                Z
 ----------------------------------------------------------------
    1      C       1.2649743628     0.0233289834     0.2649838071
    2      C      -0.0000000394    -0.0289237206    -0.5921704395
    3      H       1.2841446214    -0.8678787742     0.8971742124
    4      H       1.3486919079     0.8893268560     0.9230452097
    5      H       2.1492564526    -0.0248082959    -0.3715160879
    6      C      -1.2649744402     0.0233290633     0.2649837945
    7      H      -0.0000001813    -0.8794643367    -1.2778890590
    8      H       0.0000001488     0.8684507019    -1.2162697106
    9      H      -1.2841446774    -0.8678787024     0.8971741648
   10      H      -2.1492565065    -0.0248079991    -0.3715161426
   11      H      -1.3486917094     0.8893268903     0.9230452700
 ----------------------------------------------------------------
 Nuclear Repulsion Energy =          82.62484442 hartrees
 There are       13 alpha and       13 beta electrons
 Requested basis set is 6-311+G(2df,2pd)
 There are 72 shells and 214 basis functions

 Total QAlloc Memory Limit   2000 MB
 Mega-Array Size       188 MB
 MEM_STATIC part       192 MB

                       Distance Matrix (Angstroms)
             C (  1)   C (  2)   H (  3)   H (  4)   H (  5)   C (  6)
   C (  2)  1.528922
   H (  3)  1.092833  2.137995
   H (  4)  1.090874  2.226664  1.758581
   H (  5)  1.090598  2.160558  1.751788  1.775510
   C (  6)  2.529949  1.528922  2.773432  2.830945  3.473388
   H (  7)  2.189898  1.092533  2.525879  3.129170  2.484201  2.189898
   H (  8)  2.123323  1.093060  3.021674  2.529046  2.476050  2.123324
   H (  9)  2.773432  2.137994  2.568289  3.165481  3.756140  1.092833
   H ( 10)  3.473388  2.160557  3.756140  3.840205  4.298513  1.090598
   H ( 11)  2.830945  2.226664  3.165481  2.697384  3.840205  1.090874
             H (  7)   H (  8)   H (  9)   H ( 10)
   H (  8)  1.749001
   H (  9)  2.525878  3.021674
   H ( 10)  2.484200  2.476050  1.751788
   H ( 11)  3.129170  2.529046  1.758581  1.775510
 
 A cutoff of  1.0D-09 yielded   2530 shell pairs
 There are     22576 function pairs (     27757 Cartesian)
 Smallest overlap matrix eigenvalue = 8.78E-05

 Scale SEOQF with 1.000000e-01/1.000000e-01/1.000000e-01

 Standard Electronic Orientation quadrupole field applied
 Nucleus-field energy     =     0.0000000006 hartrees
 Requested basis set is 6-31G(d)
 There are 28 shells and 58 basis functions
 A cutoff of  1.0D-09 yielded    402 shell pairs
 There are      1773 function pairs (      1968 Cartesian)
 Smallest overlap matrix eigenvalue = 6.78E-03
 Guess from superposition of atomic densities
 Warning:  Energy on first SCF cycle will be non-variational
 SAD guess density has 26.000000 electrons
 Long-range K will be added via erf
 Coulomb attenuation parameter = 0.2 bohr**(-1)
 A restricted hybrid HF-DFT SCF calculation will be
 performed using Relaxed Constraint Minimization + Pulay DIIS
 Exchange:     0.2220 Hartree-Fock + 1.0000 wB97X-D + LR-HF
 Correlation:  1.0000 wB97X-D
 Using Euler-Maclaurin-Lebedev (75,302) quadrature formula
 Dispersion:   Grimme D
 SCF converges when DIIS error is below 1.0E-04
 using 3 threads for integral computing
 -------------------------------------------------------
 OpenMP Integral computing Module                
 Release: version 1.0, May 2013, Q-Chem Inc. Pittsburgh 
 -------------------------------------------------------
 using 3 threads for integral computing
 -------------------------------------------------------
 OpenMP Integral computing Module                
 Release: version 1.0, May 2013, Q-Chem Inc. Pittsburgh 
 -------------------------------------------------------
 ---------------------------------------
  Cycle       Energy         DIIS Error
 ---------------------------------------
    1    -119.6065483844      1.00E-01
    2    -119.0644071454      8.98E-03
    3    -119.0853757049      2.46E-03
    4    -119.0991594351      1.68E-03
    5    -119.0998569204      2.69E-04 Done RCA. Switching to DIIS
    6    -119.1003665445      1.98E-04
    7    -119.1003835132      4.68E-06 Convergence criterion met
 ---------------------------------------
 SCF time:  CPU 33.22 s  wall 11.47 s
 SCF   energy in the small basis set = -119.10038351
 Total energy in the small basis set = -119.10038351
 ----------------------------------------------------
  Cycle       Energy    
 ----------------------------------------------------
    1     -16.5355013847     -1.65E+01
 Long-range K will be added via erf
 Coulomb attenuation parameter = 0.2 bohr**(-1)
 A restricted hybrid HF-DFT SCF calculation will be
 performed using Relaxed Constraint Minimization + Pulay DIIS
 Exchange:     0.2220 Hartree-Fock + 1.0000 wB97X-D + LR-HF
 Correlation:  1.0000 wB97X-D
 Using Euler-Maclaurin-Lebedev (75,302) quadrature formula
 Dispersion:   Grimme D
 SCF converges when DIIS error is below 1.0E-05
 Basis2 calculation detected. Using small basis as guess for larger.
 SCFMinFind is unable to tell whether the solution found is close.
 Resetting ReadMinima to 0 and attempting to follow guess.
 SCFMinFind following SCF Guess.
 using 3 threads for integral computing
 -------------------------------------------------------
 OpenMP Integral computing Module                
 Release: version 1.0, May 2013, Q-Chem Inc. Pittsburgh 
 -------------------------------------------------------
 using 3 threads for integral computing
 -------------------------------------------------------
 OpenMP Integral computing Module                
 Release: version 1.0, May 2013, Q-Chem Inc. Pittsburgh 
 -------------------------------------------------------
 ---------------------------------------
  Cycle       Energy         DIIS Error
 ---------------------------------------
    1    -119.1194629308      4.21E-03
    2    -119.1415124182      5.98E-04 Done RCA. Switching to DIIS
    3    -119.1423481394      4.19E-04
    4    -119.1433106416      4.54E-05
    5    -119.1433253381      9.79E-06 Convergence criterion met
 ---------------------------------------
 SCF time:  CPU 84.12 s  wall 28.44 s
 SCF   energy in the final basis set = -119.14332534
 Total energy in the final basis set = -119.14332534
 
 --------------------------------------------------------------
 
                    Orbital Energies (a.u.)
 --------------------------------------------------------------
 
 Alpha MOs
 -- Occupied --
-10.2756 -10.2650 -10.2649  -0.8802  -0.7766  -0.6783  -0.5446  -0.5224
 -0.4862  -0.4615  -0.4268  -0.4132  -0.4019
 -- Virtual --
  0.0689   0.0860   0.0905   0.0993   0.1251   0.1296   0.1336   0.1423
  0.1428   0.1705   0.1719   0.1912   0.2340   0.2403   0.2434   0.2649
  0.2826   0.2845   0.3101   0.3109   0.3353   0.3486   0.4576   0.4656
  0.4711   0.5095   0.5171   0.5181   0.5425   0.5612   0.5849   0.5850
  0.6218   0.6234   0.6418   0.6459   0.6573   0.6599   0.7073   0.7250
  0.7269   0.7664   0.8207   0.8565   0.8716   0.8746   0.8858   0.9569
  0.9995   1.0528   1.0581   1.1403   1.1439   1.1713   1.1896   1.2099
  1.2160   1.2431   1.2695   1.2761   1.2849   1.2914   1.3283   1.3785
  1.3926   1.3944   1.3964   1.4477   1.4636   1.4707   1.4788   1.4804
  1.5205   1.5789   1.6072   1.6172   1.6359   1.6591   1.6760   1.7044
  1.7354   2.3700   2.4713   2.4821   2.4950   2.5353   2.5588   2.5916
  2.6331   2.7115   2.8140   2.8337   2.8450   2.8982   2.9304   2.9324
  2.9332   2.9412   3.0063   3.0094   3.0665   3.0743   3.0792   3.0965
  3.1199   3.1495   3.1746   3.1908   3.2203   3.2240   3.2730   3.3166
  3.3253   3.3308   3.3450   3.3573   3.3635   3.3695   3.4038   3.4508
  3.4650   3.4847   3.4888   3.5276   3.5536   3.5757   3.5962   3.6083
  3.6263   3.6768   3.6975   3.7048   3.7754   3.7943   3.8692   3.8786
  3.9162   3.9342   3.9503   3.9617   3.9660   3.9988   4.0398   4.0597
  4.0803   4.0928   4.1142   4.1408   4.1466   4.1628   4.1976   4.2123
  4.2129   4.2550   4.2580   4.3672   4.3694   4.4168   4.4181   4.4294
  4.4449   4.5315   4.5843   4.6327   4.6708   4.7959   4.8426   4.8865
  4.8975   4.9353   4.9632   4.9675   5.0347   5.0575   5.0996   5.1093
  5.1366   5.2467   5.2683   5.2772   5.2794   5.3351   5.3519   5.3784
  5.3790   5.3888   5.4575   5.5036   5.5371   5.5470   5.6128   5.7369
  5.9534   6.3803   6.3861   6.3952   6.4197   6.4582  25.1941  25.4439
 25.4452
 --------------------------------------------------------------
 
 -----------------------------------------------------------------
                    Cartesian Multipole Moments
 -----------------------------------------------------------------
    Charge (ESU x 10^10)
                 0.0000
    Dipole Moment (Debye)
         X       0.0000      Y      -0.0037      Z      -0.0912
       Tot       0.0913
    Quadrupole Moments (Debye-Ang)
        XX     -22.2950     XY       0.0000     YY     -21.3695
        XZ       0.0000     YZ       0.3296     ZZ     -21.7337
    Octopole Moments (Debye-Ang^2)
       XXX       0.0000    XXY       0.1722    XYY       0.0000
       YYY      -0.1546    XXZ      -1.4373    XYZ       0.0000
       YYZ       0.4500    XZZ       0.0000    YZZ      -0.0919
       ZZZ      -0.4907
    Hexadecapole Moments (Debye-Ang^3)
      XXXX    -203.6793   XXXY       0.0000   XXYY     -42.1072
      XYYY       0.0000   YYYY     -44.1349   XXXZ       0.0000
      XXYZ       0.5856   XYYZ      -0.0000   YYYZ      -0.3969
      XXZZ     -45.1087   XYZZ       0.0000   YYZZ     -17.1006
      XZZZ      -0.0000   YZZZ       0.2187   ZZZZ     -72.6125
 -----------------------------------------------------------------
Archival summary:
1\1\cn0821\SP\ProcedureUnspecified\BasisUnspecified\38\r0852400\SunApr1206:35:382020SunApr1206:35:382020\0\\#,ProcedureUnspecified,BasisUnspecified,\\0,1\C\H,1,1.09253\H,1,1.09306,2,106.306\C,1,1.52892,2,112.239,3,116.638,0\H,4,1.0906,1,110.007,2,-52.4425,0\H,4,1.09087,1,115.393,2,-176.192,0\H,4,1.09283,1,108.117,2,63.7218,0\C,1,1.52892,2,112.239,3,-116.638,0\H,8,1.0906,1,110.007,2,52.4425,0\H,8,1.09087,1,115.393,2,176.192,0\H,8,1.09283,1,108.117,2,-63.7218,0\\\@

 Total job time:  44.12s(wall), 122.51s(cpu) 
 Sun Apr 12 06:35:38 2020

        *************************************************************
        *                                                           *
        *  Thank you very much for using Q-Chem.  Have a nice day.  *
        *                                                           *
        *************************************************************


