                  Welcome to Q-Chem
     A Quantum Leap Into The Future Of Chemistry


 Q-Chem 5.2 (devel), Q-Chem, Inc., Pleasanton, CA (2019)

 Yihan Shao,  Zhengting Gan,  E. Epifanovsky,  A. T. B. Gilbert,  M. Wormit,  
 J. Kussmann,  A. W. Lange,  A. Behn,  Jia Deng,  Xintian Feng,  D. Ghosh,  
 M. Goldey,  P. R. Horn,  L. D. Jacobson,  I. Kaliman,  T. Kus,  A. Landau,  
 Jie Liu,  E. I. Proynov,  R. M. Richard,  R. P. Steele,  E. J. Sundstrom,  
 H. L. Woodcock III,  P. M. Zimmerman,  D. Zuev,  B. Alam,  B. Albrecht,  
 E. Alguire,  S. A. Baeppler,  D. Barton,  Z. Benda,  Y. A. Bernard,  
 E. J. Berquist,  K. B. Bravaya,  H. Burton,  K. Carter-Fenk,  D. Casanova,  
 Chun-Min Chang,  Yunqing Chen,  A. Chien,  K. D. Closser,  M. P. Coons,  
 S. Coriani,  S. Dasgupta,  A. L. Dempwolff,  M. Diedenhofen,  Hainam Do,  
 R. G. Edgar,  Po-Tung Fang,  S. Faraji,  S. Fatehi,  Qingguo Feng,  
 J. Fosso-Tande,  J. Gayvert,  Qinghui Ge,  A. Ghysels,  G. Gidofalvi,  
 J. Gomes,  J. Gonthier,  A. Gunina,  D. Hait,  M. W. D. Hanson-Heine,  
 P. H. P. Harbach,  A. W. Hauser,  M. F. Herbst,  J. E. Herr,  
 E. G. Hohenstein,  Z. C. Holden,  Kerwin Hui,  B. C. Huynh,  T.-C. Jagau,  
 Hyunjun Ji,  B. Kaduk,  K. Khistyaev,  Jaehoon Kim,  P. Klunzinger,  K. Koh,  
 D. Kosenkov,  L. Koulias,  T. Kowalczyk,  C. M. Krauter,  A. Kunitsa,  
 Ka Un Lao,  A. Laurent,  K. V. Lawler,  Joonho Lee,  D. Lefrancois,  
 S. Lehtola,  D. S. Levine,  Yi-Pei Li,  You-Sheng Lin,  Fenglai Liu,  
 Kuan-Yu Liu,  E. Livshits,  M. Loipersberger,  A. Luenser,  P. Manohar,  
 E. Mansoor,  S. F. Manzer,  Shan-Ping Mao,  Yuezhi Mao,  N. Mardirossian,  
 A. V. Marenich,  T. Markovich,  L. A. Martinez-Martinez,  S. A. Maurer,  
 N. J. Mayhall,  S. C. McKenzie,  J.-M. Mewes,  P. Morgante,  A. F. Morrison,  
 J. W. Mullinax,  K. Nanda,  T. S. Nguyen-Beck,  R. Olivares-Amaya,  
 J. A. Parkhill,  S. K. Paul,  Zheng Pei,  T. M. Perrine,  F. Plasser,  
 P. Pokhilko,  S. Prager,  A. Prociuk,  E. Ramos,  B. Rana,  D. R. Rehn,  
 F. Rob,  M. Scheurer,  M. Schneider,  N. Sergueev,  S. M. Sharada,  
 S. Sharma,  D. W. Small,  T. Stauch,  C. J. Stein,  T. Stein,  Yu-Chuan Su,  
 S. P. Veccham,  A. J. W. Thom,  A. Tkatchenko,  T. Tsuchimochi,  
 N. M. Tubman,  L. Vogt,  M. L. Vidal,  O. Vydrov,  M. A. Watson,  J. Wenzel,  
 M. de Wergifosse,  T. A. Wesolowski,  A. White,  J. Witte,  A. Yamada,  
 Jun Yang,  K. Yao,  S. Yeganeh,  S. R. Yost,  Zhi-Qiang You,  A. Zech,  
 Igor Ying Zhang,  Xing Zhang,  Yan Zhao,  Ying Zhu,  B. R. Brooks,  
 G. K. L. Chan,  C. J. Cramer,  M. S. Gordon,  W. J. Hehre,  A. Klamt,  
 M. W. Schmidt,  C. D. Sherrill,  D. G. Truhlar,  A. Aspuru-Guzik,  R. Baer,  
 A. T. Bell,  N. A. Besley,  Jeng-Da Chai,  A. E. DePrince, III,  
 R. A. DiStasio Jr.,  A. Dreuw,  B. D. Dunietz,  T. R. Furlani,  
 Chao-Ping Hsu,  Yousung Jung,  Jing Kong,  D. S. Lambrecht,  WanZhen Liang,  
 C. Ochsenfeld,  V. A. Rassolov,  L. V. Slipchenko,  J. E. Subotnik,  
 T. Van Voorhis,  J. M. Herbert,  A. I. Krylov,  P. M. W. Gill,  M. Head-Gordon

 Contributors to earlier versions of Q-Chem not listed above: 
 R. D. Adamson,  B. Austin,  J. Baker,  G. J. O. Beran,  K. Brandhorst,  
 S. T. Brown,  E. F. C. Byrd,  A. K. Chakraborty,  C.-L. Cheng,  
 Siu Hung Chien,  D. M. Chipman,  D. L. Crittenden,  H. Dachsel,  
 R. J. Doerksen,  A. D. Dutoi,  L. Fusti-Molnar,  W. A. Goddard III,  
 A. Golubeva-Zadorozhnaya,  S. R. Gwaltney,  G. Hawkins,  A. Heyden,  
 S. Hirata,  G. Kedziora,  F. J. Keil,  C. Kelley,  Jihan Kim,  R. A. King,  
 R. Z. Khaliullin,  P. P. Korambath,  W. Kurlancheek,  A. M. Lee,  M. S. Lee,  
 S. V. Levchenko,  Ching Yeh Lin,  D. Liotard,  R. C. Lochan,  I. Lotan,  
 P. E. Maslen,  N. Nair,  D. P. O'Neill,  D. Neuhauser,  E. Neuscamman,  
 C. M. Oana,  R. Olson,  B. Peters,  R. Peverati,  P. A. Pieniazek,  
 Y. M. Rhee,  J. Ritchie,  M. A. Rohrdanz,  E. Rosta,  N. J. Russ,  
 H. F. Schaefer III,  N. E. Schultz,  N. Shenvi,  A. C. Simmonett,  A. Sodt,  
 D. Stuck,  K. S. Thanthiriwatte,  V. Vanovschi,  Tao Wang,  A. Warshel,  
 C. F. Williams,  Q. Wu,  X. Xu,  W. Zhang

 Please cite Q-Chem as follows:
 Y. Shao et al., Mol. Phys. 113, 184-215 (2015)
 DOI: 10.1080/00268976.2014.952696

 Q-Chem 5.2.2 for Intel X86 EM64T Linux

 Parts of Q-Chem use Armadillo 9.800.1 (Horizon Scraper).
 http://arma.sourceforge.net/

 Q-Chem begins on Sun Apr 12 07:14:01 2020  

Host: cn0821
0

     Scratch files written to /tmp/ypli/6721342.srvc1/qchem185388//
Warning:  Did not find "$end" marker in "$molecule" section

Checking the input file for inconsistencies... 	...done.

--------------------------------------------------------------
User input:
--------------------------------------------------------------
$rem
   JOBTYPE  sp
   EXCHANGE   omegaB97X-D
   BASIS   6-311+G(2df,2pd)
   max_scf_cycles   250
   geom_opt_max_cycles   1500
   basis2 6-31G*
   scf_algorithm rca_diis
   SYM_IGNORE  TRUE
   print_input   true
   geom_opt_dmax   80
   pop_mulliken false
   XC_GRID 000075000302
$end

$molecule
0 1
C       1.3013525308     -0.0002530055     0.3384148853
C       0.0000007176     -0.0009376622     -0.5366917796
H       1.1408819625     -0.9315017227     0.8773065009
H       1.1439195426     0.9316513319     0.8772047205
H       2.0437740938     0.0010070359     -0.4546460999
C       -1.3013510841     -0.0002529607     0.3384145184
H       0.0000000099     -0.8716480709     -1.2001050385
H       0.0000006550     0.8707794266     -1.1987187407
H       -1.1408836700     -0.9315022481     0.8773061383
H       -2.0437751417     0.0010067530     -0.4546443729
H       -1.1439196770     0.9316517888     0.8772042871
--------------------------------------------------------------
 ----------------------------------------------------------------
             Standard Nuclear Orientation (Angstroms)
    I     Atom           X                Y                Z
 ----------------------------------------------------------------
    1      C       1.3013525308    -0.0002530055     0.3384148853
    2      C       0.0000007176    -0.0009376622    -0.5366917796
    3      H       1.1408819625    -0.9315017227     0.8773065009
    4      H       1.1439195426     0.9316513319     0.8772047205
    5      H       2.0437740938     0.0010070359    -0.4546460999
    6      C      -1.3013510841    -0.0002529607     0.3384145184
    7      H       0.0000000099    -0.8716480709    -1.2001050385
    8      H       0.0000006550     0.8707794266    -1.1987187407
    9      H      -1.1408836700    -0.9315022481     0.8773061383
   10      H      -2.0437751417     0.0010067530    -0.4546443729
   11      H      -1.1439196770     0.9316517888     0.8772042871
 ----------------------------------------------------------------
 Nuclear Repulsion Energy =          82.70466454 hartrees
 There are       13 alpha and       13 beta electrons
 Requested basis set is 6-311+G(2df,2pd)
 There are 72 shells and 214 basis functions

 Total QAlloc Memory Limit   2000 MB
 Mega-Array Size       188 MB
 MEM_STATIC part       192 MB

                       Distance Matrix (Angstroms)
             C (  1)   C (  2)   H (  3)   H (  4)   H (  5)   C (  6)
   C (  2)  1.568225
   H (  3)  1.087832  2.041311
   H (  4)  1.087900  2.043863  1.863156
   H (  5)  1.086341  2.045420  1.859808  1.857327
   C (  6)  2.602704  1.568224  2.668732  2.671720  3.437850
   H (  7)  2.195425  1.094648  2.370830  2.979204  2.343981  2.195424
   H (  8)  2.194309  1.094610  2.976526  2.371015  2.342468  2.194309
   H (  9)  2.668735  2.041313  2.281766  2.948163  3.575712  1.087832
   H ( 10)  3.437852  2.045423  3.575711  3.577893  4.087549  1.086341
   H ( 11)  2.671722  2.043864  2.948162  2.287839  3.577893  1.087900
             H (  7)   H (  8)   H (  9)   H ( 10)
   H (  8)  1.742428
   H (  9)  2.370830  2.976527
   H ( 10)  2.343983  2.342471  1.859806
   H ( 11)  2.979204  2.371016  1.863157  1.857326
 
 A cutoff of  1.0D-09 yielded   2552 shell pairs
 There are     22634 function pairs (     27821 Cartesian)
 Smallest overlap matrix eigenvalue = 9.63E-05

 Scale SEOQF with 1.000000e-01/1.000000e-01/1.000000e-01

 Standard Electronic Orientation quadrupole field applied
 Nucleus-field energy     =     0.0000000006 hartrees
 Requested basis set is 6-31G(d)
 There are 28 shells and 58 basis functions
 A cutoff of  1.0D-09 yielded    402 shell pairs
 There are      1773 function pairs (      1968 Cartesian)
 Smallest overlap matrix eigenvalue = 6.56E-03
 Guess from superposition of atomic densities
 Warning:  Energy on first SCF cycle will be non-variational
 SAD guess density has 26.000000 electrons
 Long-range K will be added via erf
 Coulomb attenuation parameter = 0.2 bohr**(-1)
 A restricted hybrid HF-DFT SCF calculation will be
 performed using Relaxed Constraint Minimization + Pulay DIIS
 Exchange:     0.2220 Hartree-Fock + 1.0000 wB97X-D + LR-HF
 Correlation:  1.0000 wB97X-D
 Using Euler-Maclaurin-Lebedev (75,302) quadrature formula
 Dispersion:   Grimme D
 SCF converges when DIIS error is below 1.0E-04
 using 3 threads for integral computing
 -------------------------------------------------------
 OpenMP Integral computing Module                
 Release: version 1.0, May 2013, Q-Chem Inc. Pittsburgh 
 -------------------------------------------------------
 using 3 threads for integral computing
 -------------------------------------------------------
 OpenMP Integral computing Module                
 Release: version 1.0, May 2013, Q-Chem Inc. Pittsburgh 
 -------------------------------------------------------
 ---------------------------------------
  Cycle       Energy         DIIS Error
 ---------------------------------------
    1    -119.5779897205      9.88E-02
    2    -119.0317095015      9.03E-03
    3    -119.0538448316      2.77E-03
    4    -119.0668794385      1.90E-03
    5    -119.0677916480      3.54E-04 Done RCA. Switching to DIIS
    6    -119.0684095759      2.59E-04
    7    -119.0684384498      6.04E-06 Convergence criterion met
 ---------------------------------------
 SCF time:  CPU 33.06 s  wall 11.41 s
 SCF   energy in the small basis set = -119.06843845
 Total energy in the small basis set = -119.06843845
 ----------------------------------------------------
  Cycle       Energy    
 ----------------------------------------------------
    1     -16.5227990561     -1.65E+01
 Long-range K will be added via erf
 Coulomb attenuation parameter = 0.2 bohr**(-1)
 A restricted hybrid HF-DFT SCF calculation will be
 performed using Relaxed Constraint Minimization + Pulay DIIS
 Exchange:     0.2220 Hartree-Fock + 1.0000 wB97X-D + LR-HF
 Correlation:  1.0000 wB97X-D
 Using Euler-Maclaurin-Lebedev (75,302) quadrature formula
 Dispersion:   Grimme D
 SCF converges when DIIS error is below 1.0E-05
 Basis2 calculation detected. Using small basis as guess for larger.
 SCFMinFind is unable to tell whether the solution found is close.
 Resetting ReadMinima to 0 and attempting to follow guess.
 SCFMinFind following SCF Guess.
 using 3 threads for integral computing
 -------------------------------------------------------
 OpenMP Integral computing Module                
 Release: version 1.0, May 2013, Q-Chem Inc. Pittsburgh 
 -------------------------------------------------------
 using 3 threads for integral computing
 -------------------------------------------------------
 OpenMP Integral computing Module                
 Release: version 1.0, May 2013, Q-Chem Inc. Pittsburgh 
 -------------------------------------------------------
 ---------------------------------------
  Cycle       Energy         DIIS Error
 ---------------------------------------
    1    -119.0884891902      4.22E-03
    2    -119.1104051450      6.69E-04 Done RCA. Switching to DIIS
    3    -119.1114020970      4.79E-04
    4    -119.1126647783      4.83E-05
    5    -119.1126796092      1.82E-05
    6    -119.1126815385      4.22E-06 Convergence criterion met
 ---------------------------------------
 SCF time:  CPU 99.92 s  wall 33.78 s
 SCF   energy in the final basis set = -119.11268154
 Total energy in the final basis set = -119.11268154
 
 --------------------------------------------------------------
 
                    Orbital Energies (a.u.)
 --------------------------------------------------------------
 
 Alpha MOs
 -- Occupied --
-10.2724 -10.2686 -10.2686  -0.8830  -0.7771  -0.6636  -0.5599  -0.5285
 -0.4874  -0.4806  -0.4131  -0.4045  -0.3894
 -- Virtual --
  0.0686   0.0893   0.0908   0.0949   0.1212   0.1310   0.1313   0.1320
  0.1433   0.1688   0.1707   0.1903   0.2135   0.2357   0.2611   0.2646
  0.2683   0.2778   0.3019   0.3027   0.3306   0.3389   0.4447   0.4553
  0.4693   0.4975   0.5066   0.5095   0.5350   0.5649   0.5929   0.6047
  0.6120   0.6123   0.6128   0.6456   0.6547   0.6571   0.7067   0.7211
  0.7270   0.7604   0.8088   0.8301   0.8629   0.8838   0.9204   0.9473
  0.9999   1.0175   1.0377   1.0899   1.1194   1.1921   1.1930   1.2052
  1.2297   1.2680   1.2786   1.2851   1.2951   1.2998   1.3612   1.3739
  1.3741   1.3907   1.3962   1.4379   1.4435   1.4574   1.4731   1.4919
  1.4970   1.5420   1.5460   1.5583   1.5620   1.6223   1.6501   1.7029
  1.7199   2.4715   2.5022   2.5241   2.5538   2.6070   2.6533   2.6672
  2.6995   2.7214   2.7977   2.8029   2.8428   2.8840   2.8867   2.9057
  2.9196   2.9389   2.9699   2.9708   2.9753   2.9917   3.0168   3.1197
  3.1220   3.1249   3.1327   3.1706   3.2122   3.2135   3.2378   3.2625
  3.3011   3.3258   3.3443   3.3563   3.3571   3.3889   3.4009   3.4273
  3.4703   3.5004   3.5104   3.5263   3.5606   3.5653   3.5719   3.5807
  3.6221   3.6491   3.6532   3.7046   3.7212   3.7883   3.8435   3.8472
  3.8760   3.8798   3.9016   3.9403   3.9641   3.9963   4.0167   4.0285
  4.0685   4.0925   4.1106   4.1137   4.1584   4.1703   4.1905   4.2187
  4.2556   4.2562   4.3186   4.3577   4.4304   4.4379   4.4614   4.4854
  4.5241   4.5468   4.6144   4.6354   4.7160   4.7883   4.8369   4.8666
  4.8956   4.9455   4.9899   4.9936   4.9967   5.0224   5.0521   5.0820
  5.0833   5.1357   5.1448   5.1489   5.1845   5.2808   5.3785   5.4078
  5.4997   5.5149   5.6107   5.6223   5.7114   5.7179   5.9335   5.9440
  5.9781   6.2863   6.3055   6.3479   6.3525   6.4601  25.1419  25.4382
 25.4409
 --------------------------------------------------------------
 
 -----------------------------------------------------------------
                    Cartesian Multipole Moments
 -----------------------------------------------------------------
    Charge (ESU x 10^10)
                 0.0000
    Dipole Moment (Debye)
         X      -0.0000      Y       0.0025      Z      -0.3464
       Tot       0.3464
    Quadrupole Moments (Debye-Ang)
        XX     -23.9396     XY       0.0000     YY     -20.9073
        XZ      -0.0000     YZ       0.0021     ZZ     -22.2353
    Octopole Moments (Debye-Ang^2)
       XXX      -0.0001    XXY       0.0407    XYY      -0.0000
       YYY       0.0247    XXZ      -5.4604    XYZ       0.0000
       YYZ       0.0359    XZZ      -0.0000    YZZ       0.0047
       ZZZ      -3.9685
    Hexadecapole Moments (Debye-Ang^3)
      XXXX    -209.9178   XXXY       0.0000   XXYY     -42.2201
      XYYY       0.0000   YYYY     -44.3120   XXXZ      -0.0000
      XXYZ       0.0079   XYYZ      -0.0000   YYYZ      -0.0010
      XXZZ     -45.7926   XYZZ       0.0000   YYZZ     -17.6716
      XZZZ      -0.0000   YZZZ       0.0052   ZZZZ     -74.2991
 -----------------------------------------------------------------
Archival summary:
1\1\cn0821\SP\ProcedureUnspecified\BasisUnspecified\38\r0852400\SunApr1207:14:502020SunApr1207:14:502020\0\\#,ProcedureUnspecified,BasisUnspecified,\\0,1\C\H,1,1.09461\H,1,1.09465,2,105.481\C,1,1.56822,2,109.703,3,-118.184,0\H,4,1.08634,1,99.1921,2,57.7219,0\H,4,1.08783,1,98.8386,2,177.74,0\H,4,1.0879,1,99.0127,2,-62.0744,0\C,1,1.56822,2,109.703,3,118.185,0\H,8,1.08634,1,99.1919,2,-57.7219,0\H,8,1.08783,1,98.8385,2,-177.741,0\H,8,1.0879,1,99.0127,2,62.0745,0\\\@

 Total job time:  49.42s(wall), 138.17s(cpu) 
 Sun Apr 12 07:14:50 2020

        *************************************************************
        *                                                           *
        *  Thank you very much for using Q-Chem.  Have a nice day.  *
        *                                                           *
        *************************************************************


