                  Welcome to Q-Chem
     A Quantum Leap Into The Future Of Chemistry


 Q-Chem 5.2 (devel), Q-Chem, Inc., Pleasanton, CA (2019)

 Yihan Shao,  Zhengting Gan,  E. Epifanovsky,  A. T. B. Gilbert,  M. Wormit,  
 J. Kussmann,  A. W. Lange,  A. Behn,  Jia Deng,  Xintian Feng,  D. Ghosh,  
 M. Goldey,  P. R. Horn,  L. D. Jacobson,  I. Kaliman,  T. Kus,  A. Landau,  
 Jie Liu,  E. I. Proynov,  R. M. Richard,  R. P. Steele,  E. J. Sundstrom,  
 H. L. Woodcock III,  P. M. Zimmerman,  D. Zuev,  B. Alam,  B. Albrecht,  
 E. Alguire,  S. A. Baeppler,  D. Barton,  Z. Benda,  Y. A. Bernard,  
 E. J. Berquist,  K. B. Bravaya,  H. Burton,  K. Carter-Fenk,  D. Casanova,  
 Chun-Min Chang,  Yunqing Chen,  A. Chien,  K. D. Closser,  M. P. Coons,  
 S. Coriani,  S. Dasgupta,  A. L. Dempwolff,  M. Diedenhofen,  Hainam Do,  
 R. G. Edgar,  Po-Tung Fang,  S. Faraji,  S. Fatehi,  Qingguo Feng,  
 J. Fosso-Tande,  J. Gayvert,  Qinghui Ge,  A. Ghysels,  G. Gidofalvi,  
 J. Gomes,  J. Gonthier,  A. Gunina,  D. Hait,  M. W. D. Hanson-Heine,  
 P. H. P. Harbach,  A. W. Hauser,  M. F. Herbst,  J. E. Herr,  
 E. G. Hohenstein,  Z. C. Holden,  Kerwin Hui,  B. C. Huynh,  T.-C. Jagau,  
 Hyunjun Ji,  B. Kaduk,  K. Khistyaev,  Jaehoon Kim,  P. Klunzinger,  K. Koh,  
 D. Kosenkov,  L. Koulias,  T. Kowalczyk,  C. M. Krauter,  A. Kunitsa,  
 Ka Un Lao,  A. Laurent,  K. V. Lawler,  Joonho Lee,  D. Lefrancois,  
 S. Lehtola,  D. S. Levine,  Yi-Pei Li,  You-Sheng Lin,  Fenglai Liu,  
 Kuan-Yu Liu,  E. Livshits,  M. Loipersberger,  A. Luenser,  P. Manohar,  
 E. Mansoor,  S. F. Manzer,  Shan-Ping Mao,  Yuezhi Mao,  N. Mardirossian,  
 A. V. Marenich,  T. Markovich,  L. A. Martinez-Martinez,  S. A. Maurer,  
 N. J. Mayhall,  S. C. McKenzie,  J.-M. Mewes,  P. Morgante,  A. F. Morrison,  
 J. W. Mullinax,  K. Nanda,  T. S. Nguyen-Beck,  R. Olivares-Amaya,  
 J. A. Parkhill,  S. K. Paul,  Zheng Pei,  T. M. Perrine,  F. Plasser,  
 P. Pokhilko,  S. Prager,  A. Prociuk,  E. Ramos,  B. Rana,  D. R. Rehn,  
 F. Rob,  M. Scheurer,  M. Schneider,  N. Sergueev,  S. M. Sharada,  
 S. Sharma,  D. W. Small,  T. Stauch,  C. J. Stein,  T. Stein,  Yu-Chuan Su,  
 S. P. Veccham,  A. J. W. Thom,  A. Tkatchenko,  T. Tsuchimochi,  
 N. M. Tubman,  L. Vogt,  M. L. Vidal,  O. Vydrov,  M. A. Watson,  J. Wenzel,  
 M. de Wergifosse,  T. A. Wesolowski,  A. White,  J. Witte,  A. Yamada,  
 Jun Yang,  K. Yao,  S. Yeganeh,  S. R. Yost,  Zhi-Qiang You,  A. Zech,  
 Igor Ying Zhang,  Xing Zhang,  Yan Zhao,  Ying Zhu,  B. R. Brooks,  
 G. K. L. Chan,  C. J. Cramer,  M. S. Gordon,  W. J. Hehre,  A. Klamt,  
 M. W. Schmidt,  C. D. Sherrill,  D. G. Truhlar,  A. Aspuru-Guzik,  R. Baer,  
 A. T. Bell,  N. A. Besley,  Jeng-Da Chai,  A. E. DePrince, III,  
 R. A. DiStasio Jr.,  A. Dreuw,  B. D. Dunietz,  T. R. Furlani,  
 Chao-Ping Hsu,  Yousung Jung,  Jing Kong,  D. S. Lambrecht,  WanZhen Liang,  
 C. Ochsenfeld,  V. A. Rassolov,  L. V. Slipchenko,  J. E. Subotnik,  
 T. Van Voorhis,  J. M. Herbert,  A. I. Krylov,  P. M. W. Gill,  M. Head-Gordon

 Contributors to earlier versions of Q-Chem not listed above: 
 R. D. Adamson,  B. Austin,  J. Baker,  G. J. O. Beran,  K. Brandhorst,  
 S. T. Brown,  E. F. C. Byrd,  A. K. Chakraborty,  C.-L. Cheng,  
 Siu Hung Chien,  D. M. Chipman,  D. L. Crittenden,  H. Dachsel,  
 R. J. Doerksen,  A. D. Dutoi,  L. Fusti-Molnar,  W. A. Goddard III,  
 A. Golubeva-Zadorozhnaya,  S. R. Gwaltney,  G. Hawkins,  A. Heyden,  
 S. Hirata,  G. Kedziora,  F. J. Keil,  C. Kelley,  Jihan Kim,  R. A. King,  
 R. Z. Khaliullin,  P. P. Korambath,  W. Kurlancheek,  A. M. Lee,  M. S. Lee,  
 S. V. Levchenko,  Ching Yeh Lin,  D. Liotard,  R. C. Lochan,  I. Lotan,  
 P. E. Maslen,  N. Nair,  D. P. O'Neill,  D. Neuhauser,  E. Neuscamman,  
 C. M. Oana,  R. Olson,  B. Peters,  R. Peverati,  P. A. Pieniazek,  
 Y. M. Rhee,  J. Ritchie,  M. A. Rohrdanz,  E. Rosta,  N. J. Russ,  
 H. F. Schaefer III,  N. E. Schultz,  N. Shenvi,  A. C. Simmonett,  A. Sodt,  
 D. Stuck,  K. S. Thanthiriwatte,  V. Vanovschi,  Tao Wang,  A. Warshel,  
 C. F. Williams,  Q. Wu,  X. Xu,  W. Zhang

 Please cite Q-Chem as follows:
 Y. Shao et al., Mol. Phys. 113, 184-215 (2015)
 DOI: 10.1080/00268976.2014.952696

 Q-Chem 5.2.2 for Intel X86 EM64T Linux

 Parts of Q-Chem use Armadillo 9.800.1 (Horizon Scraper).
 http://arma.sourceforge.net/

 Q-Chem begins on Sun Apr 12 05:45:24 2020  

Host: cn0821
0

     Scratch files written to /tmp/ypli/6721342.srvc1/qchem171689//
Warning:  Did not find "$end" marker in "$molecule" section

Checking the input file for inconsistencies... 	...done.

--------------------------------------------------------------
User input:
--------------------------------------------------------------
$rem
   JOBTYPE  sp
   EXCHANGE   omegaB97X-D
   BASIS   6-311+G(2df,2pd)
   max_scf_cycles   250
   geom_opt_max_cycles   1500
   basis2 6-31G*
   scf_algorithm rca_diis
   SYM_IGNORE  TRUE
   print_input   true
   geom_opt_dmax   80
   pop_mulliken false
   XC_GRID 000075000302
$end

$molecule
0 1
C       1.2598881200     0.0489286967     0.2619887901
C       -0.0000000182     0.0872064734     -0.5923011844
H       1.2053553802     -0.8944360150     0.8116645311
H       1.3897816257     0.8559897943     0.9833294434
H       2.1544659448     -0.0154883169     -0.3587427603
C       -1.2598882436     0.0489288220     0.2619886183
H       -0.0000000125     -0.8998050103     -1.0656838628
H       0.0000000462     0.8226101030     -1.3974497983
H       -1.2053551864     -0.8944357987     0.8116645128
H       -2.1544661895     -0.0154878298     -0.3587427831
H       -1.3897815273     0.8559897474     0.9833295122
--------------------------------------------------------------
 ----------------------------------------------------------------
             Standard Nuclear Orientation (Angstroms)
    I     Atom           X                Y                Z
 ----------------------------------------------------------------
    1      C       1.2598881200     0.0489286967     0.2619887901
    2      C      -0.0000000182     0.0872064734    -0.5923011844
    3      H       1.2053553802    -0.8944360150     0.8116645311
    4      H       1.3897816257     0.8559897943     0.9833294434
    5      H       2.1544659448    -0.0154883169    -0.3587427603
    6      C      -1.2598882436     0.0489288220     0.2619886183
    7      H      -0.0000000125    -0.8998050103    -1.0656838628
    8      H       0.0000000462     0.8226101030    -1.3974497983
    9      H      -1.2053551864    -0.8944357987     0.8116645128
   10      H      -2.1544661895    -0.0154878298    -0.3587427831
   11      H      -1.3897815273     0.8559897474     0.9833295122
 ----------------------------------------------------------------
 Nuclear Repulsion Energy =          82.92517826 hartrees
 There are       13 alpha and       13 beta electrons
 Requested basis set is 6-311+G(2df,2pd)
 There are 72 shells and 214 basis functions

 Total QAlloc Memory Limit   2000 MB
 Mega-Array Size       188 MB
 MEM_STATIC part       192 MB

                       Distance Matrix (Angstroms)
             C (  1)   C (  2)   H (  3)   H (  4)   H (  5)   C (  6)
   C (  2)  1.522693
   H (  3)  1.093185  2.094665
   H (  4)  1.090207  2.237215  1.768466
   H (  5)  1.090746  2.169521  1.744481  1.773520
   C (  6)  2.519776  1.522693  2.696202  2.862242  3.470918
   H (  7)  2.061584  1.094661  2.230997  3.035254  2.433825  2.061584
   H (  8)  2.222529  1.090451  3.046525  2.756940  2.534373  2.222529
   H (  9)  2.696202  2.094665  2.410711  3.134995  3.664806  1.093185
   H ( 10)  3.470918  2.169521  3.664806  3.888743  4.308932  1.090746
   H ( 11)  2.862242  2.237215  3.134995  2.779563  3.888743  1.090207
             H (  7)   H (  8)   H (  9)   H ( 10)
   H (  8)  1.754076
   H (  9)  2.230997  3.046525
   H ( 10)  2.433826  2.534373  1.744481
   H ( 11)  3.035253  2.756940  1.768466  1.773520
 
 A cutoff of  1.0D-09 yielded   2534 shell pairs
 There are     22580 function pairs (     27761 Cartesian)
 Smallest overlap matrix eigenvalue = 8.85E-05

 Scale SEOQF with 1.000000e-01/1.000000e-01/1.000000e-01

 Standard Electronic Orientation quadrupole field applied
 Nucleus-field energy     =     0.0000000006 hartrees
 Requested basis set is 6-31G(d)
 There are 28 shells and 58 basis functions
 A cutoff of  1.0D-09 yielded    402 shell pairs
 There are      1773 function pairs (      1968 Cartesian)
 Smallest overlap matrix eigenvalue = 6.50E-03
 Guess from superposition of atomic densities
 Warning:  Energy on first SCF cycle will be non-variational
 SAD guess density has 26.000000 electrons
 Long-range K will be added via erf
 Coulomb attenuation parameter = 0.2 bohr**(-1)
 A restricted hybrid HF-DFT SCF calculation will be
 performed using Relaxed Constraint Minimization + Pulay DIIS
 Exchange:     0.2220 Hartree-Fock + 1.0000 wB97X-D + LR-HF
 Correlation:  1.0000 wB97X-D
 Using Euler-Maclaurin-Lebedev (75,302) quadrature formula
 Dispersion:   Grimme D
 SCF converges when DIIS error is below 1.0E-04
 using 3 threads for integral computing
 -------------------------------------------------------
 OpenMP Integral computing Module                
 Release: version 1.0, May 2013, Q-Chem Inc. Pittsburgh 
 -------------------------------------------------------
 using 3 threads for integral computing
 -------------------------------------------------------
 OpenMP Integral computing Module                
 Release: version 1.0, May 2013, Q-Chem Inc. Pittsburgh 
 -------------------------------------------------------
 ---------------------------------------
  Cycle       Energy         DIIS Error
 ---------------------------------------
    1    -119.6355361267      1.01E-01
    2    -119.0593525613      9.02E-03
    3    -119.0805134482      2.47E-03
    4    -119.0944964892      1.69E-03
    5    -119.0951990483      2.66E-04 Done RCA. Switching to DIIS
    6    -119.0957157761      1.97E-04
    7    -119.0957325705      4.61E-06 Convergence criterion met
 ---------------------------------------
 SCF time:  CPU 32.82 s  wall 11.33 s
 SCF   energy in the small basis set = -119.09573257
 Total energy in the small basis set = -119.09573257
 ----------------------------------------------------
  Cycle       Energy    
 ----------------------------------------------------
    1     -16.5423310022     -1.65E+01
 Long-range K will be added via erf
 Coulomb attenuation parameter = 0.2 bohr**(-1)
 A restricted hybrid HF-DFT SCF calculation will be
 performed using Relaxed Constraint Minimization + Pulay DIIS
 Exchange:     0.2220 Hartree-Fock + 1.0000 wB97X-D + LR-HF
 Correlation:  1.0000 wB97X-D
 Using Euler-Maclaurin-Lebedev (75,302) quadrature formula
 Dispersion:   Grimme D
 SCF converges when DIIS error is below 1.0E-05
 Basis2 calculation detected. Using small basis as guess for larger.
 SCFMinFind is unable to tell whether the solution found is close.
 Resetting ReadMinima to 0 and attempting to follow guess.
 SCFMinFind following SCF Guess.
 using 3 threads for integral computing
 -------------------------------------------------------
 OpenMP Integral computing Module                
 Release: version 1.0, May 2013, Q-Chem Inc. Pittsburgh 
 -------------------------------------------------------
 using 3 threads for integral computing
 -------------------------------------------------------
 OpenMP Integral computing Module                
 Release: version 1.0, May 2013, Q-Chem Inc. Pittsburgh 
 -------------------------------------------------------
 ---------------------------------------
  Cycle       Energy         DIIS Error
 ---------------------------------------
    1    -119.1150516764      4.21E-03
    2    -119.1370734736      5.99E-04 Done RCA. Switching to DIIS
    3    -119.1379068092      4.21E-04
    4    -119.1388754225      4.58E-05
    5    -119.1388902855      1.01E-05
    6    -119.1388909793      3.79E-06 Convergence criterion met
 ---------------------------------------
 SCF time:  CPU 98.37 s  wall 33.29 s
 SCF   energy in the final basis set = -119.13889098
 Total energy in the final basis set = -119.13889098
 
 --------------------------------------------------------------
 
                    Orbital Energies (a.u.)
 --------------------------------------------------------------
 
 Alpha MOs
 -- Occupied --
-10.2745 -10.2653 -10.2653  -0.8841  -0.7773  -0.6770  -0.5498  -0.5229
 -0.4857  -0.4605  -0.4203  -0.4165  -0.4039
 -- Virtual --
  0.0689   0.0859   0.0903   0.0972   0.1256   0.1299   0.1335   0.1381
  0.1433   0.1717   0.1722   0.1914   0.2313   0.2436   0.2443   0.2636
  0.2835   0.2857   0.3101   0.3130   0.3322   0.3493   0.4589   0.4692
  0.4702   0.5041   0.5134   0.5160   0.5421   0.5658   0.5861   0.5965
  0.6077   0.6247   0.6446   0.6458   0.6526   0.6651   0.7103   0.7251
  0.7260   0.7701   0.8173   0.8480   0.8694   0.8874   0.9080   0.9704
  1.0107   1.0331   1.0820   1.1284   1.1372   1.1753   1.1838   1.2023
  1.2301   1.2473   1.2503   1.2909   1.2981   1.3176   1.3232   1.3772
  1.3888   1.3974   1.4187   1.4365   1.4532   1.4612   1.4964   1.5162
  1.5331   1.5761   1.5825   1.6297   1.6301   1.6336   1.6667   1.7026
  1.7378   2.3788   2.4392   2.4769   2.5127   2.5735   2.5860   2.6126
  2.6698   2.7061   2.7761   2.8367   2.8703   2.8933   2.9178   2.9268
  2.9563   2.9651   3.0064   3.0065   3.0567   3.0641   3.0925   3.0959
  3.1286   3.1562   3.1801   3.1962   3.2161   3.2287   3.2577   3.3060
  3.3105   3.3148   3.3329   3.3592   3.3802   3.3939   3.4327   3.4356
  3.4681   3.4855   3.4976   3.5324   3.5664   3.5811   3.5937   3.6175
  3.6445   3.6593   3.6597   3.7016   3.8094   3.8296   3.8454   3.8934
  3.8958   3.9178   3.9424   3.9778   3.9856   4.0164   4.0281   4.0664
  4.0903   4.1036   4.1243   4.1404   4.1673   4.1828   4.1856   4.2167
  4.2301   4.2759   4.2846   4.3469   4.3674   4.4051   4.4271   4.4525
  4.4755   4.5661   4.5911   4.6364   4.7015   4.7971   4.8351   4.9056
  4.9403   4.9518   4.9661   4.9720   4.9794   5.0280   5.0850   5.1268
  5.1399   5.2254   5.2514   5.2534   5.2802   5.3621   5.3650   5.3798
  5.3901   5.3923   5.4965   5.5230   5.5427   5.5813   5.6766   5.7493
  5.9694   6.3835   6.3881   6.4042   6.4246   6.4811  25.1832  25.4435
 25.4557
 --------------------------------------------------------------
 
 -----------------------------------------------------------------
                    Cartesian Multipole Moments
 -----------------------------------------------------------------
    Charge (ESU x 10^10)
                -0.0000
    Dipole Moment (Debye)
         X       0.0000      Y      -0.1162      Z      -0.0963
       Tot       0.1509
    Quadrupole Moments (Debye-Ang)
        XX     -22.2142     XY      -0.0000     YY     -21.3930
        XZ       0.0000     YZ       0.0708     ZZ     -21.8317
    Octopole Moments (Debye-Ang^2)
       XXX       0.0000    XXY      -0.6116    XYY       0.0000
       YYY      -2.8807    XXZ      -1.4094    XYZ       0.0000
       YYZ       0.5024    XZZ       0.0000    YZZ       0.0463
       ZZZ      -0.5245
    Hexadecapole Moments (Debye-Ang^3)
      XXXX    -200.8956   XXXY       0.0000   XXYY     -41.9651
      XYYY       0.0000   YYYY     -44.1416   XXXZ      -0.0000
      XXYZ       1.0636   XYYZ      -0.0000   YYYZ       0.3953
      XXZZ     -44.8884   XYZZ       0.0000   YYZZ     -17.3299
      XZZZ      -0.0000   YZZZ      -0.0357   ZZZZ     -71.7873
 -----------------------------------------------------------------
Archival summary:
1\1\cn0821\SP\ProcedureUnspecified\BasisUnspecified\38\r0852400\SunApr1205:46:122020SunApr1205:46:122020\0\\#,ProcedureUnspecified,BasisUnspecified,\\0,1\C\H,1,1.09045\H,1,1.09466,2,106.785\C,1,1.52269,2,115.544,3,-113.502,0\H,4,1.09021,1,116.82,2,-75.2312,0\H,4,1.09075,1,111.15,2,50.4383,0\H,4,1.09319,1,105.22,2,164.772,0\C,1,1.52269,2,115.544,3,113.502,0\H,8,1.09021,1,116.82,2,75.2312,0\H,8,1.09075,1,111.15,2,-50.4384,0\H,8,1.09319,1,105.22,2,-164.772,0\\\@

 Total job time:  48.85s(wall), 136.37s(cpu) 
 Sun Apr 12 05:46:12 2020

        *************************************************************
        *                                                           *
        *  Thank you very much for using Q-Chem.  Have a nice day.  *
        *                                                           *
        *************************************************************


