                  Welcome to Q-Chem
     A Quantum Leap Into The Future Of Chemistry


 Q-Chem 5.2 (devel), Q-Chem, Inc., Pleasanton, CA (2019)

 Yihan Shao,  Zhengting Gan,  E. Epifanovsky,  A. T. B. Gilbert,  M. Wormit,  
 J. Kussmann,  A. W. Lange,  A. Behn,  Jia Deng,  Xintian Feng,  D. Ghosh,  
 M. Goldey,  P. R. Horn,  L. D. Jacobson,  I. Kaliman,  T. Kus,  A. Landau,  
 Jie Liu,  E. I. Proynov,  R. M. Richard,  R. P. Steele,  E. J. Sundstrom,  
 H. L. Woodcock III,  P. M. Zimmerman,  D. Zuev,  B. Alam,  B. Albrecht,  
 E. Alguire,  S. A. Baeppler,  D. Barton,  Z. Benda,  Y. A. Bernard,  
 E. J. Berquist,  K. B. Bravaya,  H. Burton,  K. Carter-Fenk,  D. Casanova,  
 Chun-Min Chang,  Yunqing Chen,  A. Chien,  K. D. Closser,  M. P. Coons,  
 S. Coriani,  S. Dasgupta,  A. L. Dempwolff,  M. Diedenhofen,  Hainam Do,  
 R. G. Edgar,  Po-Tung Fang,  S. Faraji,  S. Fatehi,  Qingguo Feng,  
 J. Fosso-Tande,  J. Gayvert,  Qinghui Ge,  A. Ghysels,  G. Gidofalvi,  
 J. Gomes,  J. Gonthier,  A. Gunina,  D. Hait,  M. W. D. Hanson-Heine,  
 P. H. P. Harbach,  A. W. Hauser,  M. F. Herbst,  J. E. Herr,  
 E. G. Hohenstein,  Z. C. Holden,  Kerwin Hui,  B. C. Huynh,  T.-C. Jagau,  
 Hyunjun Ji,  B. Kaduk,  K. Khistyaev,  Jaehoon Kim,  P. Klunzinger,  K. Koh,  
 D. Kosenkov,  L. Koulias,  T. Kowalczyk,  C. M. Krauter,  A. Kunitsa,  
 Ka Un Lao,  A. Laurent,  K. V. Lawler,  Joonho Lee,  D. Lefrancois,  
 S. Lehtola,  D. S. Levine,  Yi-Pei Li,  You-Sheng Lin,  Fenglai Liu,  
 Kuan-Yu Liu,  E. Livshits,  M. Loipersberger,  A. Luenser,  P. Manohar,  
 E. Mansoor,  S. F. Manzer,  Shan-Ping Mao,  Yuezhi Mao,  N. Mardirossian,  
 A. V. Marenich,  T. Markovich,  L. A. Martinez-Martinez,  S. A. Maurer,  
 N. J. Mayhall,  S. C. McKenzie,  J.-M. Mewes,  P. Morgante,  A. F. Morrison,  
 J. W. Mullinax,  K. Nanda,  T. S. Nguyen-Beck,  R. Olivares-Amaya,  
 J. A. Parkhill,  S. K. Paul,  Zheng Pei,  T. M. Perrine,  F. Plasser,  
 P. Pokhilko,  S. Prager,  A. Prociuk,  E. Ramos,  B. Rana,  D. R. Rehn,  
 F. Rob,  M. Scheurer,  M. Schneider,  N. Sergueev,  S. M. Sharada,  
 S. Sharma,  D. W. Small,  T. Stauch,  C. J. Stein,  T. Stein,  Yu-Chuan Su,  
 S. P. Veccham,  A. J. W. Thom,  A. Tkatchenko,  T. Tsuchimochi,  
 N. M. Tubman,  L. Vogt,  M. L. Vidal,  O. Vydrov,  M. A. Watson,  J. Wenzel,  
 M. de Wergifosse,  T. A. Wesolowski,  A. White,  J. Witte,  A. Yamada,  
 Jun Yang,  K. Yao,  S. Yeganeh,  S. R. Yost,  Zhi-Qiang You,  A. Zech,  
 Igor Ying Zhang,  Xing Zhang,  Yan Zhao,  Ying Zhu,  B. R. Brooks,  
 G. K. L. Chan,  C. J. Cramer,  M. S. Gordon,  W. J. Hehre,  A. Klamt,  
 M. W. Schmidt,  C. D. Sherrill,  D. G. Truhlar,  A. Aspuru-Guzik,  R. Baer,  
 A. T. Bell,  N. A. Besley,  Jeng-Da Chai,  A. E. DePrince, III,  
 R. A. DiStasio Jr.,  A. Dreuw,  B. D. Dunietz,  T. R. Furlani,  
 Chao-Ping Hsu,  Yousung Jung,  Jing Kong,  D. S. Lambrecht,  WanZhen Liang,  
 C. Ochsenfeld,  V. A. Rassolov,  L. V. Slipchenko,  J. E. Subotnik,  
 T. Van Voorhis,  J. M. Herbert,  A. I. Krylov,  P. M. W. Gill,  M. Head-Gordon

 Contributors to earlier versions of Q-Chem not listed above: 
 R. D. Adamson,  B. Austin,  J. Baker,  G. J. O. Beran,  K. Brandhorst,  
 S. T. Brown,  E. F. C. Byrd,  A. K. Chakraborty,  C.-L. Cheng,  
 Siu Hung Chien,  D. M. Chipman,  D. L. Crittenden,  H. Dachsel,  
 R. J. Doerksen,  A. D. Dutoi,  L. Fusti-Molnar,  W. A. Goddard III,  
 A. Golubeva-Zadorozhnaya,  S. R. Gwaltney,  G. Hawkins,  A. Heyden,  
 S. Hirata,  G. Kedziora,  F. J. Keil,  C. Kelley,  Jihan Kim,  R. A. King,  
 R. Z. Khaliullin,  P. P. Korambath,  W. Kurlancheek,  A. M. Lee,  M. S. Lee,  
 S. V. Levchenko,  Ching Yeh Lin,  D. Liotard,  R. C. Lochan,  I. Lotan,  
 P. E. Maslen,  N. Nair,  D. P. O'Neill,  D. Neuhauser,  E. Neuscamman,  
 C. M. Oana,  R. Olson,  B. Peters,  R. Peverati,  P. A. Pieniazek,  
 Y. M. Rhee,  J. Ritchie,  M. A. Rohrdanz,  E. Rosta,  N. J. Russ,  
 H. F. Schaefer III,  N. E. Schultz,  N. Shenvi,  A. C. Simmonett,  A. Sodt,  
 D. Stuck,  K. S. Thanthiriwatte,  V. Vanovschi,  Tao Wang,  A. Warshel,  
 C. F. Williams,  Q. Wu,  X. Xu,  W. Zhang

 Please cite Q-Chem as follows:
 Y. Shao et al., Mol. Phys. 113, 184-215 (2015)
 DOI: 10.1080/00268976.2014.952696

 Q-Chem 5.2.2 for Intel X86 EM64T Linux

 Parts of Q-Chem use Armadillo 9.800.1 (Horizon Scraper).
 http://arma.sourceforge.net/

 Q-Chem begins on Sun Apr 12 05:44:34 2020  

Host: cn0821
0

     Scratch files written to /tmp/ypli/6721342.srvc1/qchem171542//
Warning:  Did not find "$end" marker in "$molecule" section

Checking the input file for inconsistencies... 	...done.

--------------------------------------------------------------
User input:
--------------------------------------------------------------
$rem
   JOBTYPE  sp
   EXCHANGE   omegaB97X-D
   BASIS   6-311+G(2df,2pd)
   max_scf_cycles   250
   geom_opt_max_cycles   1500
   basis2 6-31G*
   scf_algorithm rca_diis
   SYM_IGNORE  TRUE
   print_input   true
   geom_opt_dmax   80
   pop_mulliken false
   XC_GRID 000075000302
$end

$molecule
0 1
C       1.2648044882     0.0246149628     0.2607046796
C       -0.0000000087     0.0438764939     -0.5881509640
H       1.2575497068     -0.8896327463     0.8587962357
H       1.3503060346     0.8702665044     0.9447558310
H       2.1610227052     -0.0075775722     -0.3599248754
C       -1.2648045492     0.0246150537     0.2607045923
H       0.0000000159     -0.8903719017     -1.1566590076
H       -0.0000000264     0.8511529753     -1.3228086808
H       -1.2575495967     -0.8896325968     0.8587962357
H       -2.1610228307     -0.0075770315     -0.3599248869
H       -1.3503059995     0.8702665243     0.9447558593
--------------------------------------------------------------
 ----------------------------------------------------------------
             Standard Nuclear Orientation (Angstroms)
    I     Atom           X                Y                Z
 ----------------------------------------------------------------
    1      C       1.2648044882     0.0246149628     0.2607046796
    2      C      -0.0000000087     0.0438764939    -0.5881509640
    3      H       1.2575497068    -0.8896327463     0.8587962357
    4      H       1.3503060346     0.8702665044     0.9447558310
    5      H       2.1610227052    -0.0075775722    -0.3599248754
    6      C      -1.2648045492     0.0246150537     0.2607045923
    7      H       0.0000000159    -0.8903719017    -1.1566590076
    8      H      -0.0000000264     0.8511529753    -1.3228086808
    9      H      -1.2575495967    -0.8896325968     0.8587962357
   10      H      -2.1610228307    -0.0075770315    -0.3599248869
   11      H      -1.3503059995     0.8702665243     0.9447558593
 ----------------------------------------------------------------
 Nuclear Repulsion Energy =          82.79049839 hartrees
 There are       13 alpha and       13 beta electrons
 Requested basis set is 6-311+G(2df,2pd)
 There are 72 shells and 214 basis functions

 Total QAlloc Memory Limit   2000 MB
 Mega-Array Size       188 MB
 MEM_STATIC part       192 MB

                       Distance Matrix (Angstroms)
             C (  1)   C (  2)   H (  3)   H (  4)   H (  5)   C (  6)
   C (  2)  1.523370
   H (  3)  1.092527  2.132259
   H (  4)  1.091038  2.203645  1.764437
   H (  5)  1.090607  2.173650  1.754869  1.769199
   C (  6)  2.529609  1.523370  2.748788  2.832288  3.481739
   H (  7)  2.108519  1.093628  2.375603  3.055997  2.466603  2.108519
   H (  8)  2.188701  1.091521  3.061236  2.639231  2.516860  2.188700
   H (  9)  2.748787  2.132259  2.515099  3.147308  3.734962  1.092527
   H ( 10)  3.481740  2.173650  3.734962  3.847367  4.322046  1.090607
   H ( 11)  2.832288  2.203645  3.147308  2.700612  3.847367  1.091038
             H (  7)   H (  8)   H (  9)   H ( 10)
   H (  8)  1.749433
   H (  9)  2.375603  3.061236
   H ( 10)  2.466603  2.516860  1.754870
   H ( 11)  3.055997  2.639231  1.764437  1.769198
 
 A cutoff of  1.0D-09 yielded   2532 shell pairs
 There are     22578 function pairs (     27759 Cartesian)
 Smallest overlap matrix eigenvalue = 8.70E-05

 Scale SEOQF with 1.000000e-01/1.000000e-01/1.000000e-01

 Standard Electronic Orientation quadrupole field applied
 Nucleus-field energy     =     0.0000000006 hartrees
 Requested basis set is 6-31G(d)
 There are 28 shells and 58 basis functions
 A cutoff of  1.0D-09 yielded    402 shell pairs
 There are      1773 function pairs (      1968 Cartesian)
 Smallest overlap matrix eigenvalue = 6.71E-03
 Guess from superposition of atomic densities
 Warning:  Energy on first SCF cycle will be non-variational
 SAD guess density has 26.000000 electrons
 Long-range K will be added via erf
 Coulomb attenuation parameter = 0.2 bohr**(-1)
 A restricted hybrid HF-DFT SCF calculation will be
 performed using Relaxed Constraint Minimization + Pulay DIIS
 Exchange:     0.2220 Hartree-Fock + 1.0000 wB97X-D + LR-HF
 Correlation:  1.0000 wB97X-D
 Using Euler-Maclaurin-Lebedev (75,302) quadrature formula
 Dispersion:   Grimme D
 SCF converges when DIIS error is below 1.0E-04
 using 3 threads for integral computing
 -------------------------------------------------------
 OpenMP Integral computing Module                
 Release: version 1.0, May 2013, Q-Chem Inc. Pittsburgh 
 -------------------------------------------------------
 using 3 threads for integral computing
 -------------------------------------------------------
 OpenMP Integral computing Module                
 Release: version 1.0, May 2013, Q-Chem Inc. Pittsburgh 
 -------------------------------------------------------
 ---------------------------------------
  Cycle       Energy         DIIS Error
 ---------------------------------------
    1    -119.6233966979      1.01E-01
    2    -119.0650963874      9.01E-03
    3    -119.0862027138      2.46E-03
    4    -119.1001108388      1.69E-03
    5    -119.1008093973      2.67E-04 Done RCA. Switching to DIIS
    6    -119.1013215935      1.97E-04
    7    -119.1013384530      4.53E-06 Convergence criterion met
 ---------------------------------------
 SCF time:  CPU 33.33 s  wall 11.52 s
 SCF   energy in the small basis set = -119.10133845
 Total energy in the small basis set = -119.10133845
 ----------------------------------------------------
  Cycle       Energy    
 ----------------------------------------------------
    1     -16.5403944126     -1.65E+01
 Long-range K will be added via erf
 Coulomb attenuation parameter = 0.2 bohr**(-1)
 A restricted hybrid HF-DFT SCF calculation will be
 performed using Relaxed Constraint Minimization + Pulay DIIS
 Exchange:     0.2220 Hartree-Fock + 1.0000 wB97X-D + LR-HF
 Correlation:  1.0000 wB97X-D
 Using Euler-Maclaurin-Lebedev (75,302) quadrature formula
 Dispersion:   Grimme D
 SCF converges when DIIS error is below 1.0E-05
 Basis2 calculation detected. Using small basis as guess for larger.
 SCFMinFind is unable to tell whether the solution found is close.
 Resetting ReadMinima to 0 and attempting to follow guess.
 SCFMinFind following SCF Guess.
 using 3 threads for integral computing
 -------------------------------------------------------
 OpenMP Integral computing Module                
 Release: version 1.0, May 2013, Q-Chem Inc. Pittsburgh 
 -------------------------------------------------------
 using 3 threads for integral computing
 -------------------------------------------------------
 OpenMP Integral computing Module                
 Release: version 1.0, May 2013, Q-Chem Inc. Pittsburgh 
 -------------------------------------------------------
 ---------------------------------------
  Cycle       Energy         DIIS Error
 ---------------------------------------
    1    -119.1204598302      4.21E-03
    2    -119.1425019793      5.97E-04 Done RCA. Switching to DIIS
    3    -119.1433347470      4.19E-04
    4    -119.1442948624      4.56E-05
    5    -119.1443096164      1.01E-05
    6    -119.1443102986      3.84E-06 Convergence criterion met
 ---------------------------------------
 SCF time:  CPU 97.28 s  wall 32.98 s
 SCF   energy in the final basis set = -119.14431030
 Total energy in the final basis set = -119.14431030
 
 --------------------------------------------------------------
 
                    Orbital Energies (a.u.)
 --------------------------------------------------------------
 
 Alpha MOs
 -- Occupied --
-10.2741 -10.2651 -10.2651  -0.8820  -0.7772  -0.6775  -0.5469  -0.5238
 -0.4834  -0.4630  -0.4184  -0.4179  -0.4067
 -- Virtual --
  0.0691   0.0860   0.0908   0.0985   0.1252   0.1300   0.1334   0.1409
  0.1436   0.1709   0.1721   0.1913   0.2325   0.2419   0.2444   0.2640
  0.2824   0.2847   0.3108   0.3128   0.3337   0.3498   0.4586   0.4672
  0.4707   0.5084   0.5130   0.5172   0.5442   0.5627   0.5848   0.5878
  0.6199   0.6248   0.6437   0.6445   0.6564   0.6587   0.7092   0.7256
  0.7266   0.7678   0.8196   0.8569   0.8689   0.8784   0.8907   0.9619
  1.0043   1.0429   1.0685   1.1372   1.1400   1.1813   1.1817   1.2171
  1.2182   1.2402   1.2596   1.2809   1.2913   1.3017   1.3262   1.3773
  1.3848   1.3955   1.4056   1.4494   1.4543   1.4632   1.4853   1.4962
  1.5241   1.5785   1.6069   1.6245   1.6355   1.6413   1.6777   1.6989
  1.7427   2.3759   2.4548   2.4800   2.5021   2.5683   2.5702   2.5904
  2.6413   2.7116   2.8011   2.8344   2.8591   2.9035   2.9253   2.9292
  2.9416   2.9462   3.0042   3.0129   3.0588   3.0621   3.0881   3.0985
  3.1300   3.1421   3.1820   3.1956   3.2116   3.2168   3.2753   3.3106
  3.3256   3.3266   3.3361   3.3569   3.3670   3.3810   3.4092   3.4420
  3.4752   3.4830   3.4909   3.5264   3.5635   3.5803   3.5975   3.6184
  3.6332   3.6758   3.6779   3.6899   3.7989   3.8057   3.8651   3.8939
  3.9228   3.9405   3.9542   3.9644   3.9779   3.9894   4.0426   4.0640
  4.0796   4.0992   4.1134   4.1437   4.1580   4.1776   4.1926   4.2011
  4.2220   4.2542   4.2547   4.3654   4.3938   4.4034   4.4262   4.4303
  4.4434   4.5718   4.5970   4.6132   4.6823   4.8031   4.8303   4.8977
  4.9467   4.9506   4.9612   4.9697   5.0151   5.0409   5.0699   5.1152
  5.1289   5.2360   5.2526   5.2689   5.2981   5.3559   5.3642   5.3725
  5.3828   5.3877   5.4724   5.4979   5.5526   5.5602   5.6441   5.7471
  5.9593   6.3828   6.3845   6.3964   6.4193   6.4685  25.1998  25.4447
 25.4547
 --------------------------------------------------------------
 
 -----------------------------------------------------------------
                    Cartesian Multipole Moments
 -----------------------------------------------------------------
    Charge (ESU x 10^10)
                -0.0000
    Dipole Moment (Debye)
         X       0.0000      Y      -0.0590      Z      -0.0896
       Tot       0.1073
    Quadrupole Moments (Debye-Ang)
        XX     -22.1847     XY      -0.0000     YY     -21.3614
        XZ       0.0000     YZ       0.0351     ZZ     -21.8428
    Octopole Moments (Debye-Ang^2)
       XXX       0.0000    XXY      -0.3055    XYY       0.0000
       YYY      -1.4510    XXZ      -1.5106    XYZ       0.0000
       YYZ       0.4888    XZZ       0.0000    YZZ       0.0266
       ZZZ      -0.4663
    Hexadecapole Moments (Debye-Ang^3)
      XXXX    -201.9152   XXXY      -0.0000   XXYY     -42.1186
      XYYY       0.0000   YYYY     -44.1198   XXXZ      -0.0000
      XXYZ       0.5382   XYYZ      -0.0000   YYYZ       0.1995
      XXZZ     -45.1855   XYZZ       0.0000   YYZZ     -17.1327
      XZZZ      -0.0000   YZZZ      -0.0280   ZZZZ     -72.0803
 -----------------------------------------------------------------
Archival summary:
1\1\cn0821\SP\ProcedureUnspecified\BasisUnspecified\38\r0852400\SunApr1205:45:232020SunApr1205:45:232020\0\\#,ProcedureUnspecified,BasisUnspecified,\\0,1\C\H,1,1.09152\H,1,1.09363,2,106.375\C,1,1.52337,2,112.606,3,-115.925,0\H,4,1.09061,1,111.442,2,54.2769,0\H,4,1.09104,1,113.868,2,-68.6905,0\H,4,1.09253,1,108.066,2,171.562,0\C,1,1.52337,2,112.606,3,115.925,0\H,8,1.09061,1,111.442,2,-54.277,0\H,8,1.09104,1,113.868,2,68.6905,0\H,8,1.09253,1,108.066,2,-171.562,0\\\@

 Total job time:  48.85s(wall), 135.90s(cpu) 
 Sun Apr 12 05:45:23 2020

        *************************************************************
        *                                                           *
        *  Thank you very much for using Q-Chem.  Have a nice day.  *
        *                                                           *
        *************************************************************


