                  Welcome to Q-Chem
     A Quantum Leap Into The Future Of Chemistry


 Q-Chem 5.2 (devel), Q-Chem, Inc., Pleasanton, CA (2019)

 Yihan Shao,  Zhengting Gan,  E. Epifanovsky,  A. T. B. Gilbert,  M. Wormit,  
 J. Kussmann,  A. W. Lange,  A. Behn,  Jia Deng,  Xintian Feng,  D. Ghosh,  
 M. Goldey,  P. R. Horn,  L. D. Jacobson,  I. Kaliman,  T. Kus,  A. Landau,  
 Jie Liu,  E. I. Proynov,  R. M. Richard,  R. P. Steele,  E. J. Sundstrom,  
 H. L. Woodcock III,  P. M. Zimmerman,  D. Zuev,  B. Alam,  B. Albrecht,  
 E. Alguire,  S. A. Baeppler,  D. Barton,  Z. Benda,  Y. A. Bernard,  
 E. J. Berquist,  K. B. Bravaya,  H. Burton,  K. Carter-Fenk,  D. Casanova,  
 Chun-Min Chang,  Yunqing Chen,  A. Chien,  K. D. Closser,  M. P. Coons,  
 S. Coriani,  S. Dasgupta,  A. L. Dempwolff,  M. Diedenhofen,  Hainam Do,  
 R. G. Edgar,  Po-Tung Fang,  S. Faraji,  S. Fatehi,  Qingguo Feng,  
 J. Fosso-Tande,  J. Gayvert,  Qinghui Ge,  A. Ghysels,  G. Gidofalvi,  
 J. Gomes,  J. Gonthier,  A. Gunina,  D. Hait,  M. W. D. Hanson-Heine,  
 P. H. P. Harbach,  A. W. Hauser,  M. F. Herbst,  J. E. Herr,  
 E. G. Hohenstein,  Z. C. Holden,  Kerwin Hui,  B. C. Huynh,  T.-C. Jagau,  
 Hyunjun Ji,  B. Kaduk,  K. Khistyaev,  Jaehoon Kim,  P. Klunzinger,  K. Koh,  
 D. Kosenkov,  L. Koulias,  T. Kowalczyk,  C. M. Krauter,  A. Kunitsa,  
 Ka Un Lao,  A. Laurent,  K. V. Lawler,  Joonho Lee,  D. Lefrancois,  
 S. Lehtola,  D. S. Levine,  Yi-Pei Li,  You-Sheng Lin,  Fenglai Liu,  
 Kuan-Yu Liu,  E. Livshits,  M. Loipersberger,  A. Luenser,  P. Manohar,  
 E. Mansoor,  S. F. Manzer,  Shan-Ping Mao,  Yuezhi Mao,  N. Mardirossian,  
 A. V. Marenich,  T. Markovich,  L. A. Martinez-Martinez,  S. A. Maurer,  
 N. J. Mayhall,  S. C. McKenzie,  J.-M. Mewes,  P. Morgante,  A. F. Morrison,  
 J. W. Mullinax,  K. Nanda,  T. S. Nguyen-Beck,  R. Olivares-Amaya,  
 J. A. Parkhill,  S. K. Paul,  Zheng Pei,  T. M. Perrine,  F. Plasser,  
 P. Pokhilko,  S. Prager,  A. Prociuk,  E. Ramos,  B. Rana,  D. R. Rehn,  
 F. Rob,  M. Scheurer,  M. Schneider,  N. Sergueev,  S. M. Sharada,  
 S. Sharma,  D. W. Small,  T. Stauch,  C. J. Stein,  T. Stein,  Yu-Chuan Su,  
 S. P. Veccham,  A. J. W. Thom,  A. Tkatchenko,  T. Tsuchimochi,  
 N. M. Tubman,  L. Vogt,  M. L. Vidal,  O. Vydrov,  M. A. Watson,  J. Wenzel,  
 M. de Wergifosse,  T. A. Wesolowski,  A. White,  J. Witte,  A. Yamada,  
 Jun Yang,  K. Yao,  S. Yeganeh,  S. R. Yost,  Zhi-Qiang You,  A. Zech,  
 Igor Ying Zhang,  Xing Zhang,  Yan Zhao,  Ying Zhu,  B. R. Brooks,  
 G. K. L. Chan,  C. J. Cramer,  M. S. Gordon,  W. J. Hehre,  A. Klamt,  
 M. W. Schmidt,  C. D. Sherrill,  D. G. Truhlar,  A. Aspuru-Guzik,  R. Baer,  
 A. T. Bell,  N. A. Besley,  Jeng-Da Chai,  A. E. DePrince, III,  
 R. A. DiStasio Jr.,  A. Dreuw,  B. D. Dunietz,  T. R. Furlani,  
 Chao-Ping Hsu,  Yousung Jung,  Jing Kong,  D. S. Lambrecht,  WanZhen Liang,  
 C. Ochsenfeld,  V. A. Rassolov,  L. V. Slipchenko,  J. E. Subotnik,  
 T. Van Voorhis,  J. M. Herbert,  A. I. Krylov,  P. M. W. Gill,  M. Head-Gordon

 Contributors to earlier versions of Q-Chem not listed above: 
 R. D. Adamson,  B. Austin,  J. Baker,  G. J. O. Beran,  K. Brandhorst,  
 S. T. Brown,  E. F. C. Byrd,  A. K. Chakraborty,  C.-L. Cheng,  
 Siu Hung Chien,  D. M. Chipman,  D. L. Crittenden,  H. Dachsel,  
 R. J. Doerksen,  A. D. Dutoi,  L. Fusti-Molnar,  W. A. Goddard III,  
 A. Golubeva-Zadorozhnaya,  S. R. Gwaltney,  G. Hawkins,  A. Heyden,  
 S. Hirata,  G. Kedziora,  F. J. Keil,  C. Kelley,  Jihan Kim,  R. A. King,  
 R. Z. Khaliullin,  P. P. Korambath,  W. Kurlancheek,  A. M. Lee,  M. S. Lee,  
 S. V. Levchenko,  Ching Yeh Lin,  D. Liotard,  R. C. Lochan,  I. Lotan,  
 P. E. Maslen,  N. Nair,  D. P. O'Neill,  D. Neuhauser,  E. Neuscamman,  
 C. M. Oana,  R. Olson,  B. Peters,  R. Peverati,  P. A. Pieniazek,  
 Y. M. Rhee,  J. Ritchie,  M. A. Rohrdanz,  E. Rosta,  N. J. Russ,  
 H. F. Schaefer III,  N. E. Schultz,  N. Shenvi,  A. C. Simmonett,  A. Sodt,  
 D. Stuck,  K. S. Thanthiriwatte,  V. Vanovschi,  Tao Wang,  A. Warshel,  
 C. F. Williams,  Q. Wu,  X. Xu,  W. Zhang

 Please cite Q-Chem as follows:
 Y. Shao et al., Mol. Phys. 113, 184-215 (2015)
 DOI: 10.1080/00268976.2014.952696

 Q-Chem 5.2.2 for Intel X86 EM64T Linux

 Parts of Q-Chem use Armadillo 9.800.1 (Horizon Scraper).
 http://arma.sourceforge.net/

 Q-Chem begins on Sun Apr 12 07:34:02 2020  

Host: cn0821
0

     Scratch files written to /tmp/ypli/6721342.srvc1/qchem188448//
Warning:  Did not find "$end" marker in "$molecule" section

Checking the input file for inconsistencies... 	...done.

--------------------------------------------------------------
User input:
--------------------------------------------------------------
$rem
   JOBTYPE  sp
   EXCHANGE   omegaB97X-D
   BASIS   6-311+G(2df,2pd)
   max_scf_cycles   250
   geom_opt_max_cycles   1500
   basis2 6-31G*
   scf_algorithm rca_diis
   SYM_IGNORE  TRUE
   print_input   true
   geom_opt_dmax   80
   pop_mulliken false
   XC_GRID 000075000302
$end

$molecule
0 1
C       1.2650406975     -0.0133318941     0.2720104314
C       -0.0000000059     -0.0128260323     -0.5691349185
H       1.2743929797     -0.9034350073     0.9014803036
H       1.3476535099     0.8900586930     0.8805876878
H       2.1734381199     0.0430389921     -0.3298962941
C       -1.2650406551     -0.0133319818     0.2720104361
H       0.0000002168     -0.8503808858     -1.2730407595
H       -0.0000001361     0.8305446381     -1.2651437808
H       -1.2743923791     -0.9034348574     0.9014805696
H       -2.1734380889     0.0430403427     -0.3298962070
H       -1.3476543192     0.8900586588     0.8805875504
--------------------------------------------------------------
 ----------------------------------------------------------------
             Standard Nuclear Orientation (Angstroms)
    I     Atom           X                Y                Z
 ----------------------------------------------------------------
    1      C       1.2650406975    -0.0133318941     0.2720104314
    2      C      -0.0000000059    -0.0128260323    -0.5691349185
    3      H       1.2743929797    -0.9034350073     0.9014803036
    4      H       1.3476535099     0.8900586930     0.8805876878
    5      H       2.1734381199     0.0430389921    -0.3298962941
    6      C      -1.2650406551    -0.0133319818     0.2720104361
    7      H       0.0000002168    -0.8503808858    -1.2730407595
    8      H      -0.0000001361     0.8305446381    -1.2651437808
    9      H      -1.2743923791    -0.9034348574     0.9014805696
   10      H      -2.1734380889     0.0430403427    -0.3298962070
   11      H      -1.3476543192     0.8900586588     0.8805875504
 ----------------------------------------------------------------
 Nuclear Repulsion Energy =          82.79290057 hartrees
 There are       13 alpha and       13 beta electrons
 Requested basis set is 6-311+G(2df,2pd)
 There are 72 shells and 214 basis functions

 Total QAlloc Memory Limit   2000 MB
 Mega-Array Size       188 MB
 MEM_STATIC part       192 MB

                       Distance Matrix (Angstroms)
             C (  1)   C (  2)   H (  3)   H (  4)   H (  5)   C (  6)
   C (  2)  1.519162
   H (  3)  1.090231  2.140087
   H (  4)  1.092385  2.175561  1.795111
   H (  5)  1.091172  2.187279  1.794543  1.692523
   C (  6)  2.530081  1.519162  2.763555  2.830663  3.491218
   H (  7)  2.165216  1.094067  2.520999  3.079515  2.532104  2.165216
   H (  8)  2.162244  1.093482  3.053690  2.534537  2.493730  2.162244
   H (  9)  2.763555  2.140086  2.548785  3.176819  3.781486  1.090231
   H ( 10)  3.491218  2.187279  3.781487  3.818481  4.346876  1.091172
   H ( 11)  2.830664  2.175562  3.176820  2.695308  3.818482  1.092385
             H (  7)   H (  8)   H (  9)   H ( 10)
   H (  8)  1.680944
   H (  9)  2.520999  3.053690
   H ( 10)  2.532105  2.493729  1.794544
   H ( 11)  3.079516  2.534537  1.795111  1.692522
 
 A cutoff of  1.0D-09 yielded   2532 shell pairs
 There are     22578 function pairs (     27759 Cartesian)
 Smallest overlap matrix eigenvalue = 8.89E-05

 Scale SEOQF with 1.000000e-01/1.000000e-01/1.000000e-01

 Standard Electronic Orientation quadrupole field applied
 Nucleus-field energy     =     0.0000000006 hartrees
 Requested basis set is 6-31G(d)
 There are 28 shells and 58 basis functions
 A cutoff of  1.0D-09 yielded    402 shell pairs
 There are      1773 function pairs (      1968 Cartesian)
 Smallest overlap matrix eigenvalue = 6.94E-03
 Guess from superposition of atomic densities
 Warning:  Energy on first SCF cycle will be non-variational
 SAD guess density has 26.000000 electrons
 Long-range K will be added via erf
 Coulomb attenuation parameter = 0.2 bohr**(-1)
 A restricted hybrid HF-DFT SCF calculation will be
 performed using Relaxed Constraint Minimization + Pulay DIIS
 Exchange:     0.2220 Hartree-Fock + 1.0000 wB97X-D + LR-HF
 Correlation:  1.0000 wB97X-D
 Using Euler-Maclaurin-Lebedev (75,302) quadrature formula
 Dispersion:   Grimme D
 SCF converges when DIIS error is below 1.0E-04
 using 3 threads for integral computing
 -------------------------------------------------------
 OpenMP Integral computing Module                
 Release: version 1.0, May 2013, Q-Chem Inc. Pittsburgh 
 -------------------------------------------------------
 using 3 threads for integral computing
 -------------------------------------------------------
 OpenMP Integral computing Module                
 Release: version 1.0, May 2013, Q-Chem Inc. Pittsburgh 
 -------------------------------------------------------
 ---------------------------------------
  Cycle       Energy         DIIS Error
 ---------------------------------------
    1    -119.6300847789      1.01E-01
    2    -119.0630337661      9.03E-03
    3    -119.0841409137      2.45E-03
    4    -119.0982218449      1.68E-03
    5    -119.0989135073      2.58E-04 Done RCA. Switching to DIIS
    6    -119.0994290821      1.91E-04
    7    -119.0994449084      4.80E-06 Convergence criterion met
 ---------------------------------------
 SCF time:  CPU 32.76 s  wall 11.33 s
 SCF   energy in the small basis set = -119.09944491
 Total energy in the small basis set = -119.09944491
 ----------------------------------------------------
  Cycle       Energy    
 ----------------------------------------------------
    1     -16.5412061821     -1.65E+01
 Long-range K will be added via erf
 Coulomb attenuation parameter = 0.2 bohr**(-1)
 A restricted hybrid HF-DFT SCF calculation will be
 performed using Relaxed Constraint Minimization + Pulay DIIS
 Exchange:     0.2220 Hartree-Fock + 1.0000 wB97X-D + LR-HF
 Correlation:  1.0000 wB97X-D
 Using Euler-Maclaurin-Lebedev (75,302) quadrature formula
 Dispersion:   Grimme D
 SCF converges when DIIS error is below 1.0E-05
 Basis2 calculation detected. Using small basis as guess for larger.
 SCFMinFind is unable to tell whether the solution found is close.
 Resetting ReadMinima to 0 and attempting to follow guess.
 SCFMinFind following SCF Guess.
 using 3 threads for integral computing
 -------------------------------------------------------
 OpenMP Integral computing Module                
 Release: version 1.0, May 2013, Q-Chem Inc. Pittsburgh 
 -------------------------------------------------------
 using 3 threads for integral computing
 -------------------------------------------------------
 OpenMP Integral computing Module                
 Release: version 1.0, May 2013, Q-Chem Inc. Pittsburgh 
 -------------------------------------------------------
 ---------------------------------------
  Cycle       Energy         DIIS Error
 ---------------------------------------
    1    -119.1187752885      4.21E-03
    2    -119.1408130282      5.95E-04 Done RCA. Switching to DIIS
    3    -119.1416318585      4.19E-04
    4    -119.1425913719      4.71E-05
    5    -119.1426068250      1.06E-05
    6    -119.1426075862      3.81E-06 Convergence criterion met
 ---------------------------------------
 SCF time:  CPU 97.24 s  wall 32.88 s
 SCF   energy in the final basis set = -119.14260759
 Total energy in the final basis set = -119.14260759
 
 --------------------------------------------------------------
 
                    Orbital Energies (a.u.)
 --------------------------------------------------------------
 
 Alpha MOs
 -- Occupied --
-10.2733 -10.2654 -10.2654  -0.8819  -0.7782  -0.6795  -0.5474  -0.5239
 -0.4777  -0.4698  -0.4191  -0.4179  -0.4028
 -- Virtual --
  0.0691   0.0856   0.0909   0.0987   0.1260   0.1308   0.1332   0.1425
  0.1442   0.1705   0.1721   0.1904   0.2318   0.2428   0.2464   0.2584
  0.2827   0.2849   0.3145   0.3147   0.3338   0.3475   0.4568   0.4688
  0.4720   0.5088   0.5154   0.5198   0.5495   0.5589   0.5830   0.5864
  0.6267   0.6274   0.6381   0.6399   0.6575   0.6597   0.7070   0.7268
  0.7292   0.7690   0.8139   0.8594   0.8659   0.8686   0.8857   0.9584
  1.0039   1.0500   1.0669   1.1353   1.1519   1.1803   1.1821   1.2059
  1.2265   1.2414   1.2620   1.2832   1.2888   1.3000   1.3243   1.3735
  1.3804   1.3909   1.3999   1.4474   1.4694   1.4778   1.4805   1.4912
  1.5069   1.5678   1.6096   1.6289   1.6391   1.6515   1.6874   1.7132
  1.7438   2.3718   2.4628   2.4813   2.4962   2.5451   2.5544   2.6007
  2.6296   2.7053   2.8249   2.8265   2.8310   2.9062   2.9143   2.9266
  2.9293   2.9533   3.0022   3.0214   3.0567   3.0692   3.0958   3.1093
  3.1365   3.1589   3.1776   3.1791   3.1946   3.2199   3.2793   3.2909
  3.3128   3.3366   3.3510   3.3748   3.3917   3.3956   3.4285   3.4382
  3.4831   3.4858   3.4891   3.4930   3.5592   3.5725   3.5922   3.6143
  3.6221   3.6460   3.6887   3.7004   3.7652   3.7706   3.8477   3.9089
  3.9112   3.9343   3.9409   3.9594   3.9634   3.9910   4.0543   4.0708
  4.0839   4.0978   4.1284   4.1394   4.1422   4.1844   4.1866   4.2093
  4.2461   4.2513   4.2641   4.3619   4.4053   4.4153   4.4238   4.4249
  4.4752   4.5522   4.5842   4.6088   4.6702   4.8047   4.8126   4.8245
  4.9228   4.9493   4.9758   5.0111   5.0229   5.0282   5.0893   5.1094
  5.1370   5.2153   5.2537   5.2730   5.2963   5.3574   5.3645   5.3897
  5.3982   5.4393   5.4673   5.5155   5.5440   5.5768   5.6388   5.7567
  5.9522   6.3536   6.3674   6.4197   6.4233   6.4806  25.2047  25.4456
 25.4563
 --------------------------------------------------------------
 
 -----------------------------------------------------------------
                    Cartesian Multipole Moments
 -----------------------------------------------------------------
    Charge (ESU x 10^10)
                -0.0000
    Dipole Moment (Debye)
         X      -0.0000      Y       0.0667      Z      -0.1255
       Tot       0.1421
    Quadrupole Moments (Debye-Ang)
        XX     -22.0009     XY      -0.0000     YY     -21.3407
        XZ      -0.0000     YZ      -0.1234     ZZ     -21.9248
    Octopole Moments (Debye-Ang^2)
       XXX      -0.0000    XXY       1.2638    XYY       0.0000
       YYY       0.5242    XXZ      -1.5247    XYZ       0.0000
       YYZ       0.5561    XZZ       0.0000    YZZ       0.0223
       ZZZ      -1.6131
    Hexadecapole Moments (Debye-Ang^3)
      XXXX    -201.3206   XXXY      -0.0000   XXYY     -41.7703
      XYYY       0.0000   YYYY     -44.0862   XXXZ      -0.0000
      XXYZ       0.0308   XYYZ       0.0000   YYYZ      -0.0278
      XXZZ     -45.8098   XYZZ       0.0000   YYZZ     -17.2106
      XZZZ      -0.0000   YZZZ      -0.0597   ZZZZ     -71.8169
 -----------------------------------------------------------------
Archival summary:
1\1\cn0821\SP\ProcedureUnspecified\BasisUnspecified\38\r0852400\SunApr1207:34:502020SunApr1207:34:502020\0\\#,ProcedureUnspecified,BasisUnspecified,\\0,1\C\H,1,1.09348\H,1,1.09407,2,100.423\C,1,1.51916,2,110.652,3,-117.139,0\H,4,1.09023,1,109.093,2,175.747,0\H,4,1.09117,1,112.818,2,52.2772,0\H,4,1.09239,1,111.788,2,-61.5352,0\C,1,1.51916,2,110.652,3,117.139,0\H,8,1.09023,1,109.093,2,-175.747,0\H,8,1.09117,1,112.818,2,-52.2773,0\H,8,1.09239,1,111.788,2,61.5352,0\\\@

 Total job time:  48.58s(wall), 135.28s(cpu) 
 Sun Apr 12 07:34:50 2020

        *************************************************************
        *                                                           *
        *  Thank you very much for using Q-Chem.  Have a nice day.  *
        *                                                           *
        *************************************************************


