                  Welcome to Q-Chem
     A Quantum Leap Into The Future Of Chemistry


 Q-Chem 5.2 (devel), Q-Chem, Inc., Pleasanton, CA (2019)

 Yihan Shao,  Zhengting Gan,  E. Epifanovsky,  A. T. B. Gilbert,  M. Wormit,  
 J. Kussmann,  A. W. Lange,  A. Behn,  Jia Deng,  Xintian Feng,  D. Ghosh,  
 M. Goldey,  P. R. Horn,  L. D. Jacobson,  I. Kaliman,  T. Kus,  A. Landau,  
 Jie Liu,  E. I. Proynov,  R. M. Richard,  R. P. Steele,  E. J. Sundstrom,  
 H. L. Woodcock III,  P. M. Zimmerman,  D. Zuev,  B. Alam,  B. Albrecht,  
 E. Alguire,  S. A. Baeppler,  D. Barton,  Z. Benda,  Y. A. Bernard,  
 E. J. Berquist,  K. B. Bravaya,  H. Burton,  K. Carter-Fenk,  D. Casanova,  
 Chun-Min Chang,  Yunqing Chen,  A. Chien,  K. D. Closser,  M. P. Coons,  
 S. Coriani,  S. Dasgupta,  A. L. Dempwolff,  M. Diedenhofen,  Hainam Do,  
 R. G. Edgar,  Po-Tung Fang,  S. Faraji,  S. Fatehi,  Qingguo Feng,  
 J. Fosso-Tande,  J. Gayvert,  Qinghui Ge,  A. Ghysels,  G. Gidofalvi,  
 J. Gomes,  J. Gonthier,  A. Gunina,  D. Hait,  M. W. D. Hanson-Heine,  
 P. H. P. Harbach,  A. W. Hauser,  M. F. Herbst,  J. E. Herr,  
 E. G. Hohenstein,  Z. C. Holden,  Kerwin Hui,  B. C. Huynh,  T.-C. Jagau,  
 Hyunjun Ji,  B. Kaduk,  K. Khistyaev,  Jaehoon Kim,  P. Klunzinger,  K. Koh,  
 D. Kosenkov,  L. Koulias,  T. Kowalczyk,  C. M. Krauter,  A. Kunitsa,  
 Ka Un Lao,  A. Laurent,  K. V. Lawler,  Joonho Lee,  D. Lefrancois,  
 S. Lehtola,  D. S. Levine,  Yi-Pei Li,  You-Sheng Lin,  Fenglai Liu,  
 Kuan-Yu Liu,  E. Livshits,  M. Loipersberger,  A. Luenser,  P. Manohar,  
 E. Mansoor,  S. F. Manzer,  Shan-Ping Mao,  Yuezhi Mao,  N. Mardirossian,  
 A. V. Marenich,  T. Markovich,  L. A. Martinez-Martinez,  S. A. Maurer,  
 N. J. Mayhall,  S. C. McKenzie,  J.-M. Mewes,  P. Morgante,  A. F. Morrison,  
 J. W. Mullinax,  K. Nanda,  T. S. Nguyen-Beck,  R. Olivares-Amaya,  
 J. A. Parkhill,  S. K. Paul,  Zheng Pei,  T. M. Perrine,  F. Plasser,  
 P. Pokhilko,  S. Prager,  A. Prociuk,  E. Ramos,  B. Rana,  D. R. Rehn,  
 F. Rob,  M. Scheurer,  M. Schneider,  N. Sergueev,  S. M. Sharada,  
 S. Sharma,  D. W. Small,  T. Stauch,  C. J. Stein,  T. Stein,  Yu-Chuan Su,  
 S. P. Veccham,  A. J. W. Thom,  A. Tkatchenko,  T. Tsuchimochi,  
 N. M. Tubman,  L. Vogt,  M. L. Vidal,  O. Vydrov,  M. A. Watson,  J. Wenzel,  
 M. de Wergifosse,  T. A. Wesolowski,  A. White,  J. Witte,  A. Yamada,  
 Jun Yang,  K. Yao,  S. Yeganeh,  S. R. Yost,  Zhi-Qiang You,  A. Zech,  
 Igor Ying Zhang,  Xing Zhang,  Yan Zhao,  Ying Zhu,  B. R. Brooks,  
 G. K. L. Chan,  C. J. Cramer,  M. S. Gordon,  W. J. Hehre,  A. Klamt,  
 M. W. Schmidt,  C. D. Sherrill,  D. G. Truhlar,  A. Aspuru-Guzik,  R. Baer,  
 A. T. Bell,  N. A. Besley,  Jeng-Da Chai,  A. E. DePrince, III,  
 R. A. DiStasio Jr.,  A. Dreuw,  B. D. Dunietz,  T. R. Furlani,  
 Chao-Ping Hsu,  Yousung Jung,  Jing Kong,  D. S. Lambrecht,  WanZhen Liang,  
 C. Ochsenfeld,  V. A. Rassolov,  L. V. Slipchenko,  J. E. Subotnik,  
 T. Van Voorhis,  J. M. Herbert,  A. I. Krylov,  P. M. W. Gill,  M. Head-Gordon

 Contributors to earlier versions of Q-Chem not listed above: 
 R. D. Adamson,  B. Austin,  J. Baker,  G. J. O. Beran,  K. Brandhorst,  
 S. T. Brown,  E. F. C. Byrd,  A. K. Chakraborty,  C.-L. Cheng,  
 Siu Hung Chien,  D. M. Chipman,  D. L. Crittenden,  H. Dachsel,  
 R. J. Doerksen,  A. D. Dutoi,  L. Fusti-Molnar,  W. A. Goddard III,  
 A. Golubeva-Zadorozhnaya,  S. R. Gwaltney,  G. Hawkins,  A. Heyden,  
 S. Hirata,  G. Kedziora,  F. J. Keil,  C. Kelley,  Jihan Kim,  R. A. King,  
 R. Z. Khaliullin,  P. P. Korambath,  W. Kurlancheek,  A. M. Lee,  M. S. Lee,  
 S. V. Levchenko,  Ching Yeh Lin,  D. Liotard,  R. C. Lochan,  I. Lotan,  
 P. E. Maslen,  N. Nair,  D. P. O'Neill,  D. Neuhauser,  E. Neuscamman,  
 C. M. Oana,  R. Olson,  B. Peters,  R. Peverati,  P. A. Pieniazek,  
 Y. M. Rhee,  J. Ritchie,  M. A. Rohrdanz,  E. Rosta,  N. J. Russ,  
 H. F. Schaefer III,  N. E. Schultz,  N. Shenvi,  A. C. Simmonett,  A. Sodt,  
 D. Stuck,  K. S. Thanthiriwatte,  V. Vanovschi,  Tao Wang,  A. Warshel,  
 C. F. Williams,  Q. Wu,  X. Xu,  W. Zhang

 Please cite Q-Chem as follows:
 Y. Shao et al., Mol. Phys. 113, 184-215 (2015)
 DOI: 10.1080/00268976.2014.952696

 Q-Chem 5.2.2 for Intel X86 EM64T Linux

 Parts of Q-Chem use Armadillo 9.800.1 (Horizon Scraper).
 http://arma.sourceforge.net/

 Q-Chem begins on Sun Apr 12 05:30:49 2020  

Host: cn0821
0

     Scratch files written to /tmp/ypli/6721342.srvc1/qchem169620//
Warning:  Did not find "$end" marker in "$molecule" section

Checking the input file for inconsistencies... 	...done.

--------------------------------------------------------------
User input:
--------------------------------------------------------------
$rem
   JOBTYPE  sp
   EXCHANGE   omegaB97X-D
   BASIS   6-311+G(2df,2pd)
   max_scf_cycles   250
   geom_opt_max_cycles   1500
   basis2 6-31G*
   scf_algorithm rca_diis
   SYM_IGNORE  TRUE
   print_input   true
   geom_opt_dmax   80
   pop_mulliken false
   XC_GRID 000075000302
$end

$molecule
0 1
C       1.3023712402     -0.0000386327     0.2598494691
C       -0.0000000113     0.0005335599     -0.5390768918
H       1.3834199552     -0.8817967323     0.8983544511
H       1.3842515324     0.8813665291     0.8988120677
H       2.1576037930     0.0004306942     -0.4174377188
C       -1.3023712933     -0.0000387086     0.2598494119
H       0.0000000978     -0.8710985843     -1.1985682300
H       -0.0000000951     0.8706413516     -1.2004663556
H       -1.3834199788     -0.8817967233     0.8983544916
H       -2.1576038784     0.0004314338     -0.4174376872
H       -1.3842514224     0.8813664786     0.8988120109
--------------------------------------------------------------
 ----------------------------------------------------------------
             Standard Nuclear Orientation (Angstroms)
    I     Atom           X                Y                Z
 ----------------------------------------------------------------
    1      C       1.3023712402    -0.0000386327     0.2598494691
    2      C      -0.0000000113     0.0005335599    -0.5390768918
    3      H       1.3834199552    -0.8817967323     0.8983544511
    4      H       1.3842515324     0.8813665291     0.8988120677
    5      H       2.1576037930     0.0004306942    -0.4174377188
    6      C      -1.3023712933    -0.0000387086     0.2598494119
    7      H       0.0000000978    -0.8710985843    -1.1985682300
    8      H      -0.0000000951     0.8706413516    -1.2004663556
    9      H      -1.3834199788    -0.8817967233     0.8983544916
   10      H      -2.1576038784     0.0004314338    -0.4174376872
   11      H      -1.3842514224     0.8813664786     0.8988120109
 ----------------------------------------------------------------
 Nuclear Repulsion Energy =          82.25882602 hartrees
 There are       13 alpha and       13 beta electrons
 Requested basis set is 6-311+G(2df,2pd)
 There are 72 shells and 214 basis functions

 Total QAlloc Memory Limit   2000 MB
 Mega-Array Size       188 MB
 MEM_STATIC part       192 MB

                       Distance Matrix (Angstroms)
             C (  1)   C (  2)   H (  3)   H (  4)   H (  5)   C (  6)
   C (  2)  1.527892
   H (  3)  1.091675  2.181414
   H (  4)  1.091720  2.181638  1.763164
   H (  5)  1.090936  2.161030  1.763234  1.762565
   C (  6)  2.604743  1.527892  2.898044  2.898808  3.525641
   H (  7)  2.140537  1.093010  2.512180  3.063705  2.454584  2.140537
   H (  8)  2.141676  1.092943  3.064301  2.514605  2.454721  2.141676
   H (  9)  2.898044  2.181414  2.766840  3.281577  3.879238  1.091675
   H ( 10)  3.525641  2.161030  3.879238  3.879858  4.315208  1.090936
   H ( 11)  2.898808  2.181638  3.281577  2.768503  3.879858  1.091720
             H (  7)   H (  8)   H (  9)   H ( 10)
   H (  8)  1.741741
   H (  9)  2.512180  3.064301
   H ( 10)  2.454584  2.454721  1.763235
   H ( 11)  3.063705  2.514605  1.763163  1.762565
 
 A cutoff of  1.0D-09 yielded   2528 shell pairs
 There are     22518 function pairs (     27687 Cartesian)
 Smallest overlap matrix eigenvalue = 8.76E-05

 Scale SEOQF with 1.000000e-01/1.000000e-01/1.000000e-01

 Standard Electronic Orientation quadrupole field applied
 Nucleus-field energy     =     0.0000000007 hartrees
 Requested basis set is 6-31G(d)
 There are 28 shells and 58 basis functions
 A cutoff of  1.0D-09 yielded    402 shell pairs
 There are      1773 function pairs (      1968 Cartesian)
 Smallest overlap matrix eigenvalue = 6.84E-03
 Guess from superposition of atomic densities
 Warning:  Energy on first SCF cycle will be non-variational
 SAD guess density has 26.000000 electrons
 Long-range K will be added via erf
 Coulomb attenuation parameter = 0.2 bohr**(-1)
 A restricted hybrid HF-DFT SCF calculation will be
 performed using Relaxed Constraint Minimization + Pulay DIIS
 Exchange:     0.2220 Hartree-Fock + 1.0000 wB97X-D + LR-HF
 Correlation:  1.0000 wB97X-D
 Using Euler-Maclaurin-Lebedev (75,302) quadrature formula
 Dispersion:   Grimme D
 SCF converges when DIIS error is below 1.0E-04
 using 3 threads for integral computing
 -------------------------------------------------------
 OpenMP Integral computing Module                
 Release: version 1.0, May 2013, Q-Chem Inc. Pittsburgh 
 -------------------------------------------------------
 using 3 threads for integral computing
 -------------------------------------------------------
 OpenMP Integral computing Module                
 Release: version 1.0, May 2013, Q-Chem Inc. Pittsburgh 
 -------------------------------------------------------
 ---------------------------------------
  Cycle       Energy         DIIS Error
 ---------------------------------------
    1    -119.6028766616      9.99E-02
    2    -119.0668190815      8.92E-03
    3    -119.0876512054      2.48E-03
    4    -119.1011529009      1.70E-03
    5    -119.1018667734      2.75E-04 Done RCA. Switching to DIIS
    6    -119.1023847841      2.04E-04
    7    -119.1024027845      4.38E-06 Convergence criterion met
 ---------------------------------------
 SCF time:  CPU 37.50 s  wall 13.28 s
 SCF   energy in the small basis set = -119.10240278
 Total energy in the small basis set = -119.10240278
 ----------------------------------------------------
  Cycle       Energy    
 ----------------------------------------------------
    1     -16.5347630164     -1.65E+01
 Long-range K will be added via erf
 Coulomb attenuation parameter = 0.2 bohr**(-1)
 A restricted hybrid HF-DFT SCF calculation will be
 performed using Relaxed Constraint Minimization + Pulay DIIS
 Exchange:     0.2220 Hartree-Fock + 1.0000 wB97X-D + LR-HF
 Correlation:  1.0000 wB97X-D
 Using Euler-Maclaurin-Lebedev (75,302) quadrature formula
 Dispersion:   Grimme D
 SCF converges when DIIS error is below 1.0E-05
 Basis2 calculation detected. Using small basis as guess for larger.
 SCFMinFind is unable to tell whether the solution found is close.
 Resetting ReadMinima to 0 and attempting to follow guess.
 SCFMinFind following SCF Guess.
 using 3 threads for integral computing
 -------------------------------------------------------
 OpenMP Integral computing Module                
 Release: version 1.0, May 2013, Q-Chem Inc. Pittsburgh 
 -------------------------------------------------------
 using 3 threads for integral computing
 -------------------------------------------------------
 OpenMP Integral computing Module                
 Release: version 1.0, May 2013, Q-Chem Inc. Pittsburgh 
 -------------------------------------------------------
 ---------------------------------------
  Cycle       Energy         DIIS Error
 ---------------------------------------
    1    -119.1214569622      4.21E-03
    2    -119.1435004886      5.92E-04 Done RCA. Switching to DIIS
    3    -119.1443361852      4.11E-04
    4    -119.1452605910      4.56E-05
    5    -119.1452752692      1.07E-05
    6    -119.1452760152      4.01E-06 Convergence criterion met
 ---------------------------------------
 SCF time:  CPU 95.62 s  wall 32.33 s
 SCF   energy in the final basis set = -119.14527602
 Total energy in the final basis set = -119.14527602
 
 --------------------------------------------------------------
 
                    Orbital Energies (a.u.)
 --------------------------------------------------------------
 
 Alpha MOs
 -- Occupied --
-10.2745 -10.2659 -10.2659  -0.8785  -0.7800  -0.6763  -0.5437  -0.5210
 -0.4859  -0.4662  -0.4213  -0.4136  -0.4057
 -- Virtual --
  0.0683   0.0864   0.0919   0.0991   0.1233   0.1296   0.1332   0.1447
  0.1453   0.1727   0.1728   0.1916   0.2383   0.2400   0.2406   0.2599
  0.2808   0.2842   0.3069   0.3115   0.3329   0.3520   0.4572   0.4639
  0.4738   0.5164   0.5165   0.5167   0.5386   0.5663   0.5820   0.5861
  0.6187   0.6215   0.6423   0.6485   0.6524   0.6525   0.7048   0.7257
  0.7294   0.7630   0.8324   0.8596   0.8633   0.8687   0.8772   0.9652
  0.9856   1.0459   1.0559   1.1360   1.1608   1.1697   1.1761   1.2103
  1.2326   1.2388   1.2710   1.2713   1.2767   1.2856   1.3339   1.3726
  1.3773   1.3844   1.3885   1.4524   1.4647   1.4743   1.4800   1.4931
  1.5277   1.5767   1.6025   1.6086   1.6414   1.6507   1.6855   1.6869
  1.7505   2.3653   2.4732   2.4821   2.4929   2.5501   2.5579   2.5691
  2.6383   2.7112   2.8169   2.8289   2.8391   2.9071   2.9316   2.9361
  2.9452   2.9473   3.0001   3.0031   3.0523   3.0826   3.0943   3.0996
  3.1368   3.1373   3.1708   3.1893   3.1983   3.2088   3.2646   3.3133
  3.3212   3.3293   3.3347   3.3528   3.3575   3.3620   3.4078   3.4532
  3.4575   3.4649   3.5096   3.5215   3.5607   3.5814   3.5981   3.6168
  3.6242   3.6671   3.6776   3.7006   3.7695   3.8232   3.8720   3.8882
  3.9082   3.9306   3.9386   3.9469   3.9595   3.9940   4.0297   4.0574
  4.0754   4.1040   4.1069   4.1545   4.1636   4.1676   4.1878   4.1880
  4.1932   4.2536   4.2665   4.3844   4.4006   4.4022   4.4317   4.4325
  4.4447   4.5664   4.5756   4.5899   4.6927   4.8004   4.8138   4.8858
  4.9314   4.9459   4.9696   4.9722   5.0250   5.0483   5.0651   5.1203
  5.1205   5.2440   5.2484   5.2583   5.3093   5.3388   5.3393   5.3508
  5.3809   5.3925   5.4103   5.4784   5.5518   5.5779   5.6158   5.7554
  5.9467   6.3759   6.3884   6.3914   6.4074   6.4649  25.2097  25.4442
 25.4442
 --------------------------------------------------------------
 
 -----------------------------------------------------------------
                    Cartesian Multipole Moments
 -----------------------------------------------------------------
    Charge (ESU x 10^10)
                 0.0000
    Dipole Moment (Debye)
         X       0.0000      Y      -0.0002      Z      -0.0975
       Tot       0.0975
    Quadrupole Moments (Debye-Ang)
        XX     -22.1103     XY      -0.0000     YY     -21.3806
        XZ       0.0000     YZ      -0.0031     ZZ     -21.8230
    Octopole Moments (Debye-Ang^2)
       XXX       0.0000    XXY       0.0039    XYY       0.0000
       YYY      -0.0089    XXZ      -1.7478    XYZ       0.0000
       YYZ       0.3458    XZZ       0.0000    YZZ       0.0008
       ZZZ      -0.9729
    Hexadecapole Moments (Debye-Ang^3)
      XXXX    -212.8241   XXXY      -0.0000   XXYY     -43.5102
      XYYY       0.0000   YYYY     -44.1419   XXXZ       0.0000
      XXYZ      -0.0003   XYYZ      -0.0000   YYYZ       0.0040
      XXZZ     -45.9852   XYZZ       0.0000   YYZZ     -16.7445
      XZZZ      -0.0000   YZZZ      -0.0024   ZZZZ     -69.7635
 -----------------------------------------------------------------
Archival summary:
1\1\cn0821\SP\ProcedureUnspecified\BasisUnspecified\38\r0852400\SunApr1205:31:392020SunApr1205:31:392020\0\\#,ProcedureUnspecified,BasisUnspecified,\\0,1\C\H,1,1.09294\H,1,1.09301,2,105.649\C,1,1.52789,2,108.465,3,-116.017,0\H,4,1.09094,1,110.097,2,57.0217,0\H,4,1.09168,1,111.68,2,176.708,0\H,4,1.09172,1,111.695,2,-62.5954,0\C,1,1.52789,2,108.465,3,116.017,0\H,8,1.09094,1,110.096,2,-57.0217,0\H,8,1.09168,1,111.68,2,-176.708,0\H,8,1.09172,1,111.695,2,62.5954,0\\\@

 Total job time:  49.74s(wall), 138.18s(cpu) 
 Sun Apr 12 05:31:39 2020

        *************************************************************
        *                                                           *
        *  Thank you very much for using Q-Chem.  Have a nice day.  *
        *                                                           *
        *************************************************************


