                  Welcome to Q-Chem
     A Quantum Leap Into The Future Of Chemistry


 Q-Chem 5.3 (devel), Q-Chem, Inc., Pleasanton, CA (2020)

 Yihan Shao,  Zhengting Gan,  E. Epifanovsky,  A. T. B. Gilbert,  M. Wormit,  
 J. Kussmann,  A. W. Lange,  A. Behn,  Jia Deng,  Xintian Feng,  D. Ghosh,  
 M. Goldey,  P. R. Horn,  L. D. Jacobson,  I. Kaliman,  T. Kus,  A. Landau,  
 Jie Liu,  E. I. Proynov,  R. M. Richard,  R. P. Steele,  E. J. Sundstrom,  
 H. L. Woodcock III,  P. M. Zimmerman,  D. Zuev,  B. Alam,  B. Albrecht,  
 E. Alguire,  S. A. Baeppler,  D. Barton,  Z. Benda,  Y. A. Bernard,  
 E. J. Berquist,  K. B. Bravaya,  H. Burton,  K. Carter-Fenk,  D. Casanova,  
 Chun-Min Chang,  Yunqing Chen,  A. Chien,  K. D. Closser,  M. P. Coons,  
 S. Coriani,  S. Dasgupta,  A. L. Dempwolff,  M. Diedenhofen,  Hainam Do,  
 R. G. Edgar,  Po-Tung Fang,  S. Faraji,  S. Fatehi,  Qingguo Feng,  
 J. Fosso-Tande,  J. Gayvert,  Qinghui Ge,  A. Ghysels,  G. Gidofalvi,  
 J. Gomes,  J. Gonthier,  A. Gunina,  D. Hait,  M. W. D. Hanson-Heine,  
 P. H. P. Harbach,  A. W. Hauser,  M. F. Herbst,  J. E. Herr,  
 E. G. Hohenstein,  Z. C. Holden,  Kerwin Hui,  B. C. Huynh,  T.-C. Jagau,  
 Hyunjun Ji,  B. Kaduk,  K. Khistyaev,  Jaehoon Kim,  P. Klunzinger,  K. Koh,  
 D. Kosenkov,  L. Koulias,  T. Kowalczyk,  C. M. Krauter,  A. Kunitsa,  
 Ka Un Lao,  A. Laurent,  K. V. Lawler,  Joonho Lee,  D. Lefrancois,  
 S. Lehtola,  D. S. Levine,  Yi-Pei Li,  You-Sheng Lin,  Fenglai Liu,  
 Kuan-Yu Liu,  E. Livshits,  M. Loipersberger,  A. Luenser,  P. Manohar,  
 E. Mansoor,  S. F. Manzer,  Shan-Ping Mao,  Yuezhi Mao,  N. Mardirossian,  
 A. V. Marenich,  T. Markovich,  L. A. Martinez-Martinez,  S. A. Maurer,  
 N. J. Mayhall,  S. C. McKenzie,  J.-M. Mewes,  P. Morgante,  A. F. Morrison,  
 J. W. Mullinax,  K. Nanda,  T. S. Nguyen-Beck,  R. Olivares-Amaya,  
 K. J. Oosterbaan,  J. A. Parkhill,  S. K. Paul,  F. Pavosevic,  Zheng Pei,  
 T. M. Perrine,  F. Plasser,  P. Pokhilko,  S. Prager,  A. Prociuk,  
 E. Ramos,  B. Rana,  D. R. Rehn,  F. Rob,  M. Scheurer,  M. Schneider,  
 N. Sergueev,  S. M. Sharada,  S. Sharma,  D. W. Small,  T. Stauch,  
 C. J. Stein,  T. Stein,  Yu-Chuan Su,  S. P. Veccham,  Zhen Tao,  
 A. J. W. Thom,  A. Tkatchenko,  T. Tsuchimochi,  N. M. Tubman,  L. Vogt,  
 M. L. Vidal,  O. Vydrov,  M. A. Watson,  J. Wenzel,  M. de Wergifosse,  
 T. A. Wesolowski,  A. White,  J. Witte,  A. Yamada,  Jun Yang,  K. Yao,  
 S. Yeganeh,  S. R. Yost,  Zhi-Qiang You,  A. Zech,  Igor Ying Zhang,  
 Xing Zhang,  Yan Zhao,  Ying Zhu,  B. R. Brooks,  G. K. L. Chan,  
 C. J. Cramer,  M. S. Gordon,  W. J. Hehre,  A. Klamt,  M. W. Schmidt,  
 C. D. Sherrill,  D. G. Truhlar,  A. Aspuru-Guzik,  R. Baer,  A. T. Bell,  
 N. A. Besley,  Jeng-Da Chai,  A. E. DePrince, III,  R. A. DiStasio Jr.,  
 A. Dreuw,  B. D. Dunietz,  T. R. Furlani,  Chao-Ping Hsu,  Yousung Jung,  
 Jing Kong,  D. S. Lambrecht,  WanZhen Liang,  C. Ochsenfeld,  
 V. A. Rassolov,  L. V. Slipchenko,  J. E. Subotnik,  T. Van Voorhis,  
 J. M. Herbert,  A. I. Krylov,  P. M. W. Gill,  M. Head-Gordon

 Contributors to earlier versions of Q-Chem not listed above: 
 R. D. Adamson,  B. Austin,  J. Baker,  G. J. O. Beran,  K. Brandhorst,  
 S. T. Brown,  E. F. C. Byrd,  A. K. Chakraborty,  C.-L. Cheng,  
 Siu Hung Chien,  D. M. Chipman,  D. L. Crittenden,  H. Dachsel,  
 R. J. Doerksen,  A. D. Dutoi,  L. Fusti-Molnar,  W. A. Goddard III,  
 A. Golubeva-Zadorozhnaya,  S. R. Gwaltney,  G. Hawkins,  A. Heyden,  
 S. Hirata,  G. Kedziora,  F. J. Keil,  C. Kelley,  Jihan Kim,  R. A. King,  
 R. Z. Khaliullin,  P. P. Korambath,  W. Kurlancheek,  A. M. Lee,  M. S. Lee,  
 S. V. Levchenko,  Ching Yeh Lin,  D. Liotard,  R. C. Lochan,  I. Lotan,  
 P. E. Maslen,  N. Nair,  D. P. O'Neill,  D. Neuhauser,  E. Neuscamman,  
 C. M. Oana,  R. Olson,  B. Peters,  R. Peverati,  P. A. Pieniazek,  
 Y. M. Rhee,  J. Ritchie,  M. A. Rohrdanz,  E. Rosta,  N. J. Russ,  
 H. F. Schaefer III,  N. E. Schultz,  N. Shenvi,  A. C. Simmonett,  A. Sodt,  
 D. Stuck,  K. S. Thanthiriwatte,  V. Vanovschi,  Tao Wang,  A. Warshel,  
 C. F. Williams,  Q. Wu,  X. Xu,  W. Zhang

 Please cite Q-Chem as follows:
 Y. Shao et al., Mol. Phys. 113, 184-215 (2015)
 DOI: 10.1080/00268976.2014.952696

 Q-Chem 5.3.0 for Intel X86 EM64T Linux

 Parts of Q-Chem use Armadillo 9.800.1 (Horizon Scraper).
 http://arma.sourceforge.net/

 Q-Chem begins on Sun Nov  8 19:54:43 2020  

Host: centos77-c4
0

     Scratch files written to /tmp/43437.centos77-h1/qchem40441//
Processing $rem in /opt/qchem-5.3.0-intel2020u1//config/preferences:
Processing $rem in /home/victor/.qchemrc:

Checking the input file for inconsistencies... 	...done.

--------------------------------------------------------------
User input:
--------------------------------------------------------------
$molecule 
0 1 
Cl      -1.2138365174      3.4272099474     -1.4297090874                 
C       -3.0339878077      3.5005901731      0.3588571919                 
C       -3.2992802556      2.1421802703      0.2761530092                 
H       -2.8936249143      1.4781724753      1.0274012683                 
H       -3.5692518421      4.2203281334     -0.2430137005                 
H       -2.3080406691      3.8955266072      1.0544678030                 
H       -2.3777450189      2.3102016575     -0.5773567503                 
H       -4.1641429750      1.8071707359     -0.2802997342                 
$end


$rem
   JOBTYPE         freq
   EXCHANGE omegaB97X-D
   BASIS 6-311+G(2df,2pd)
   XC_GRID 000075000302
   SYM_IGNORE=TRUE
   geom_opt_max_cycles   150
   max_scf_cycles   250
   geom_opt_dmax  80
   SCF_ALGORITHM RCA_DIIS
   MAX_SCF_CYCLES 150
   SYMMETRY FALSE
   MEM_TOTAL 20000
   POP_MULLIKEN FALSE
   MEM_STATIC 450
$end


--------------------------------------------------------------
 ----------------------------------------------------------------
             Standard Nuclear Orientation (Angstroms)
    I     Atom           X                Y                Z
 ----------------------------------------------------------------
    1      Cl     -1.2138365174     3.4272099474    -1.4297090874
    2      C      -3.0339878077     3.5005901731     0.3588571919
    3      C      -3.2992802556     2.1421802703     0.2761530092
    4      H      -2.8936249143     1.4781724753     1.0274012683
    5      H      -3.5692518421     4.2203281334    -0.2430137005
    6      H      -2.3080406691     3.8955266072     1.0544678030
    7      H      -2.3777450189     2.3102016575    -0.5773567503
    8      H      -4.1641429750     1.8071707359    -0.2802997342
 ----------------------------------------------------------------
 Nuclear Repulsion Energy =          93.94754939 hartrees
 There are       17 alpha and       17 beta electrons
 Requested basis set is 6-311+G(2df,2pd)
 There are 61 shells and 180 basis functions

 Total QAlloc Memory Limit  20000 MB
 Mega-Array Size       440 MB
 MEM_STATIC part       450 MB

                       Distance Matrix (Angstroms)
             Cl(  1)   C (  2)   C (  3)   H (  4)   H (  5)   H (  6)
   C (  2)  2.552901
   C (  3)  2.985020  1.386542
   H (  4)  3.557784  2.134672  1.081590
   H (  5)  2.754136  1.080175  2.158962  3.096747
   H (  6)  2.754585  1.080207  2.159295  2.487417  1.838371
   H (  7)  1.824526  1.650508  1.267256  1.879801  2.275974  2.276173
   H (  8)  3.556681  2.133879  1.081600  1.852711  2.485682  3.096442
             H (  7)
   H (  8)  1.879495
 
 A cutoff of  1.0D-12 yielded   1817 shell pairs
 There are     16208 function pairs (     20111 Cartesian)
 Smallest overlap matrix eigenvalue = 9.17E-05
 Guess from superposition of atomic densities
 Warning:  Energy on first SCF cycle will be non-variational
 SAD guess density has 34.000000 electrons
 Long-range K will be added via erf
 Coulomb attenuation parameter = 0.2 bohr**(-1)
 A restricted hybrid HF-DFT SCF calculation will be
 performed using Relaxed Constraint Minimization + Pulay DIIS
 Exchange:     0.2220 Hartree-Fock + 1.0000 wB97X-D + LR-HF
 Correlation:  1.0000 wB97X-D
 Using Euler-Maclaurin-Lebedev (75,302) quadrature formula
 Dispersion:   Grimme D
 SCF converges when DIIS error is below 1.0E-08
 using 16 threads for integral computing
 -------------------------------------------------------
 OpenMP Integral computing Module                
 Release: version 1.0, May 2013, Q-Chem Inc. Pittsburgh 
 -------------------------------------------------------
 using 16 threads for integral computing
 -------------------------------------------------------
 OpenMP Integral computing Module                
 Release: version 1.0, May 2013, Q-Chem Inc. Pittsburgh 
 -------------------------------------------------------
 ---------------------------------------
  Cycle       Energy         DIIS Error
 ---------------------------------------
    1    -539.6961179688      2.84E-02
    2    -539.2889725960      3.22E-03
    3    -539.3172771061      1.07E-03
    4    -539.3424246895      8.40E-04 Done RCA. Switching to DIIS
    5    -539.3421816802      8.79E-04
    6    -539.3452537827      1.84E-05
    7    -539.3452579996      8.51E-06
    8    -539.3452586835      3.82E-06
    9    -539.3452589922      1.58E-06
   10    -539.3452590670      5.81E-07
   11    -539.3452590774      2.19E-07
   12    -539.3452590789      7.19E-08
   13    -539.3452590790      2.74E-08
   14    -539.3452590790      5.42E-09 Convergence criterion met
 ---------------------------------------
 SCF time:  CPU 109.97 s  wall 6.93 s
 SCF   energy in the final basis set = -539.34525908
 Total energy in the final basis set = -539.34525908
 
 --------------------------------------------------------------
 
                    Orbital Energies (a.u.)
 --------------------------------------------------------------
 
 Alpha MOs
 -- Occupied --
******** -10.4056 -10.3283  -9.5059  -7.2501  -7.2483  -7.2472  -0.9582
 -0.8258  -0.7487  -0.6250  -0.5868  -0.5265  -0.5058  -0.3544  -0.3432
 -0.3294
 -- Virtual --
 -0.0393   0.0593   0.0739   0.0848   0.0946   0.1151   0.1198   0.1322
  0.1449   0.1585   0.1749   0.1829   0.1966   0.2017   0.2308   0.2700
  0.2839   0.2953   0.3219   0.4001   0.4175   0.4523   0.4665   0.4945
  0.5251   0.5269   0.5457   0.5540   0.5700   0.5724   0.5762   0.6009
  0.6120   0.6222   0.6420   0.6557   0.6656   0.7143   0.7574   0.7762
  0.7881   0.8213   0.8579   0.9194   0.9454   0.9765   1.0318   1.0788
  1.1129   1.1670   1.1926   1.2213   1.2264   1.2657   1.3070   1.3242
  1.3926   1.3939   1.4041   1.4179   1.4517   1.5348   1.5677   1.5960
  1.6418   1.7062   2.1953   2.2192   2.2238   2.2252   2.2366   2.2564
  2.3182   2.3769   2.4018   2.4096   2.4225   2.4716   2.5036   2.5298
  2.5397   2.5779   2.5852   2.6283   2.6298   2.6809   2.6930   2.7454
  2.7744   2.7832   2.8303   2.9002   2.9257   2.9637   2.9827   3.0420
  3.0429   3.0623   3.1339   3.1491   3.1729   3.2347   3.2670   3.2963
  3.3099   3.3867   3.4205   3.4242   3.4369   3.4445   3.5119   3.5632
  3.5906   3.6101   3.6443   3.7001   3.7525   3.7841   3.8240   3.9042
  3.9183   3.9202   4.0042   4.0222   4.0493   4.1424   4.1478   4.1870
  4.2188   4.2594   4.3111   4.3281   4.3854   4.4764   4.6126   4.6552
  4.6665   4.7730   4.8911   4.9215   4.9302   4.9414   4.9970   5.0698
  5.1004   5.1485   5.2029   5.2221   5.4022   5.4475   5.6206   5.9651
  6.1935   6.2832   6.2930   6.4082   9.9587  24.9805  25.3496  26.0216
 26.1677  26.9728 216.0376
 --------------------------------------------------------------
 
 -----------------------------------------------------------------
                    Cartesian Multipole Moments
 -----------------------------------------------------------------
    Charge (ESU x 10^10)
                -0.0000
    Dipole Moment (Debye)
         X      -4.2002      Y      -0.7726      Z       3.8913
       Tot       5.7776
    Quadrupole Moments (Debye-Ang)
        XX      -9.6826     XY     -12.1937     YY     -29.9786
        XZ      -4.4339     YZ      13.5611     ZZ     -31.8689
    Octopole Moments (Debye-Ang^2)
       XXX     114.8871    XXY     -30.9766    XYY      15.7103
       YYY    -258.4726    XXZ      17.8376    XYZ     -16.1469
       YYZ      64.7345    XZZ      65.0321    YZZ    -101.0647
       ZZZ      58.4175
    Hexadecapole Moments (Debye-Ang^3)
      XXXX    -747.2642   XXXY     329.7317   XXYY    -246.7533
      XYYY     347.5911   YYYY   -1666.7837   XXXZ     -18.2982
      XXYZ      68.3331   XYYZ     -73.0641   YYYZ     347.0667
      XXZZ    -206.0453   XYZZ     195.1552   YYZZ    -372.7638
      XZZZ     -53.5257   YZZZ     206.6990   ZZZZ    -235.3413
 -----------------------------------------------------------------
 Calculating MO derivatives via CPSCF
    1     0    27    0.0457802  
    2     0    27    0.0119317  
    3     0    27    0.0038346  
    4     0    27    0.0005503  
    5     0    27    0.0000706  
    6    15    12    0.0000084  
    7    27     0    0.0000010  Converged
 Time for AOints: 23.8 s (CPU) 1.5 s (wall)
 ------------------------------------------------------------------------------
                     AOints        : Timing summary (seconds)
 ------------------------------------------------------------------------------
     job step          cpu (% of tot)      sys (% of tot)     wall (% of tot)
 ------------------------------------------------------------------------------
  AOints            0.2385E+02 ( 4.5)   0.5000E-05 ( 0.9)   0.1491E+01 ( 4.5)
 ------------------------------------------------------------------------------
   Grand Totals     0.5300E+03          0.5720E-03          0.3321E+02
 ------------------------------------------------------------------------------
 Polarizability Matrix (a.u.)
            1           2           3
    1 -53.6551072  -7.5359902  16.5726769
    2  -7.5359902 -42.2846096   5.4187167
    3  16.5726769   5.4187167 -49.4286650
 Calculating analytic Hessian of the SCF energy
atom: 0 element: 17
atom: 1 element: 6
atom: 2 element: 6
atom: 3 element: 1
atom: 4 element: 1
atom: 5 element: 1
atom: 6 element: 1
atom: 7 element: 1
 
 Direct stationary perturbation theory relativistic correction:
 
 rels  =       0.794597329692
 relv  =      -2.824219750974
 rel2e =       0.000000000000
 E_rel =      -2.029622421282
 
 Hessian of the SCF Energy
            1           2           3           4           5           6
    1   0.0323767   0.0148189  -0.0231384  -0.0055470   0.0060708   0.0004897
    2   0.0148189   0.0001418  -0.0158099  -0.0258842  -0.0309877   0.0191192
    3  -0.0231384  -0.0158099   0.0234458  -0.0074993  -0.0120162  -0.0023621
    4  -0.0055470  -0.0258842  -0.0074993   0.3734454   0.0040455   0.2916409
    5   0.0060708  -0.0309877  -0.0120162   0.0040455   0.6778507  -0.0044332
    6   0.0004897   0.0191192  -0.0023621   0.2916409  -0.0044332   0.3873752
    7  -0.0100535  -0.0330472   0.0075778  -0.1060577  -0.1129513  -0.0346355
    8  -0.0107752   0.0233542   0.0147595  -0.0345938  -0.3711172  -0.0311726
    9   0.0131540   0.0364013   0.0025798  -0.0150200   0.0448685  -0.0869534
   10  -0.0022860   0.0020638   0.0018804   0.0049179   0.0041142   0.0014692
   11   0.0004590  -0.0006113  -0.0005145   0.0122261  -0.0202290   0.0248738
   12   0.0017945  -0.0018641  -0.0010478   0.0032708  -0.0123219   0.0096417
   13  -0.0044269   0.0029694   0.0030530  -0.1241549   0.1018836  -0.0947633
   14   0.0005301  -0.0009280  -0.0009136   0.0985287  -0.1895625   0.1081960
   15   0.0072069  -0.0047378  -0.0041155  -0.0994657   0.1099461  -0.1438311
   16  -0.0031127   0.0035043   0.0080065  -0.1832713  -0.0693110  -0.1441548
   17   0.0008495  -0.0012569  -0.0015275  -0.0687459  -0.0987315  -0.0666012
   18   0.0025800  -0.0026610  -0.0050850  -0.1400992  -0.0710642  -0.1749003
   19  -0.0063108   0.0340869   0.0079657   0.0358482   0.0601286  -0.0217351
   20  -0.0121136   0.0107845   0.0164637   0.0440242   0.0427443  -0.0317417
   21  -0.0035890  -0.0285048  -0.0106048  -0.0258450  -0.0472628   0.0116407
   22  -0.0006399   0.0014881   0.0021544   0.0048194   0.0060195   0.0016888
   23   0.0001605  -0.0004967  -0.0004415  -0.0296007  -0.0099672  -0.0182403
   24   0.0015022  -0.0019428  -0.0028105  -0.0069825  -0.0077164  -0.0006108
            7           8           9          10          11          12
    1  -0.0100535  -0.0107752   0.0131540  -0.0022860   0.0004590   0.0017945
    2  -0.0330472   0.0233542   0.0364013   0.0020638  -0.0006113  -0.0018641
    3   0.0075778   0.0147595   0.0025798   0.0018804  -0.0005145  -0.0010478
    4  -0.1060577  -0.0345938  -0.0150200   0.0049179   0.0122261   0.0032708
    5  -0.1129513  -0.3711172   0.0448685   0.0041142  -0.0202290  -0.0123219
    6  -0.0346355  -0.0311726  -0.0869534   0.0014692   0.0248738   0.0096417
    7   0.4430076   0.1225168   0.2450040  -0.0858443   0.0563567  -0.0924671
    8   0.1225168   0.6552592  -0.1212578   0.0572738  -0.1550349   0.1334744
    9   0.2450040  -0.1212578   0.3948817  -0.0917265   0.1256799  -0.1844752
   10  -0.0858443   0.0572738  -0.0917265   0.0848027  -0.0659308   0.0913186
   11   0.0563567  -0.1550349   0.1256799  -0.0659308   0.1684520  -0.1371179
   12  -0.0924671   0.1334744  -0.1844752   0.0913186  -0.1371179   0.1932035
   13   0.0109944  -0.0079033   0.0000203   0.0042013  -0.0026679  -0.0025274
   14   0.0119345  -0.0133248   0.0216104  -0.0008240  -0.0038440  -0.0023562
   15  -0.0015906  -0.0021455   0.0106322  -0.0029617  -0.0006463   0.0022981
   16   0.0047904  -0.0015337  -0.0053326  -0.0019631   0.0012258   0.0021892
   17  -0.0249863  -0.0049770  -0.0166681   0.0002612   0.0011938   0.0001902
   18  -0.0046443   0.0035340   0.0085188   0.0035464  -0.0015045  -0.0017909
   19  -0.0254855  -0.0466608  -0.0108561   0.0006327   0.0011080  -0.0032997
   20   0.0511171  -0.0570106  -0.0576144  -0.0122383   0.0019451   0.0131325
   21   0.0136583   0.0373787  -0.0285149   0.0096583  -0.0023798  -0.0111765
   22  -0.2313514  -0.0783239  -0.1352430  -0.0044613  -0.0027769  -0.0002788
   23  -0.0709404  -0.0771489  -0.0330198   0.0152801   0.0081282   0.0068631
   24  -0.1329025  -0.0345707  -0.1166689  -0.0131848  -0.0083907  -0.0066529
           13          14          15          16          17          18
    1  -0.0044269   0.0005301   0.0072069  -0.0031127   0.0008495   0.0025800
    2   0.0029694  -0.0009280  -0.0047378   0.0035043  -0.0012569  -0.0026610
    3   0.0030530  -0.0009136  -0.0041155   0.0080065  -0.0015275  -0.0050850
    4  -0.1241549   0.0985287  -0.0994657  -0.1832713  -0.0687459  -0.1400992
    5   0.1018836  -0.1895625   0.1099461  -0.0693110  -0.0987315  -0.0710642
    6  -0.0947633   0.1081960  -0.1438311  -0.1441548  -0.0666012  -0.1749003
    7   0.0109944   0.0119345  -0.0015906   0.0047904  -0.0249863  -0.0046443
    8  -0.0079033  -0.0133248  -0.0021455  -0.0015337  -0.0049770   0.0035340
    9   0.0000203   0.0216104   0.0106322  -0.0053326  -0.0166681   0.0085188
   10   0.0042013  -0.0008240  -0.0029617  -0.0019631   0.0002612   0.0035464
   11  -0.0026679  -0.0038440  -0.0006463   0.0012258   0.0011938  -0.0015045
   12  -0.0025274  -0.0023562   0.0022981   0.0021892   0.0001902  -0.0017909
   13   0.1196703  -0.1036577   0.1009580  -0.0026202   0.0114060  -0.0111958
   14  -0.1036577   0.1932398  -0.1201535  -0.0081149   0.0109626  -0.0052556
   15   0.1009580  -0.1201535   0.1409001  -0.0088702   0.0142212  -0.0024898
   16  -0.0026202  -0.0081149  -0.0088702   0.1853773   0.0786251   0.1496334
   17   0.0114060   0.0109626   0.0142212   0.0786251   0.0952147   0.0720871
   18  -0.0111958  -0.0052556  -0.0024898   0.1496334   0.0720871   0.1726867
   19  -0.0020636   0.0015673   0.0028110  -0.0021151   0.0015223   0.0018494
   20  -0.0033668   0.0022479   0.0043893  -0.0039338   0.0024076   0.0039222
   21   0.0006082  -0.0007576  -0.0012463   0.0014817  -0.0010685  -0.0015023
   22  -0.0016003   0.0000359   0.0019123   0.0029147   0.0010681  -0.0016700
   23   0.0013366   0.0012089  -0.0008734  -0.0004618  -0.0048134   0.0009419
   24   0.0038470  -0.0003699  -0.0021477  -0.0029532  -0.0006332   0.0045627
           19          20          21          22          23          24
    1  -0.0063108  -0.0121136  -0.0035890  -0.0006399   0.0001605   0.0015022
    2   0.0340869   0.0107845  -0.0285048   0.0014881  -0.0004967  -0.0019428
    3   0.0079657   0.0164637  -0.0106048   0.0021544  -0.0004415  -0.0028105
    4   0.0358482   0.0440242  -0.0258450   0.0048194  -0.0296007  -0.0069825
    5   0.0601286   0.0427443  -0.0472628   0.0060195  -0.0099672  -0.0077164
    6  -0.0217351  -0.0317417   0.0116407   0.0016888  -0.0182403  -0.0006108
    7  -0.0254855   0.0511171   0.0136583  -0.2313514  -0.0709404  -0.1329025
    8  -0.0466608  -0.0570106   0.0373787  -0.0783239  -0.0771489  -0.0345707
    9  -0.0108561  -0.0576144  -0.0285149  -0.1352430  -0.0330198  -0.1166689
   10   0.0006327  -0.0122383   0.0096583  -0.0044613   0.0152801  -0.0131848
   11   0.0011080   0.0019451  -0.0023798  -0.0027769   0.0081282  -0.0083907
   12  -0.0032997   0.0131325  -0.0111765  -0.0002788   0.0068631  -0.0066529
   13  -0.0020636  -0.0033668   0.0006082  -0.0016003   0.0013366   0.0038470
   14   0.0015673   0.0022479  -0.0007576   0.0000359   0.0012089  -0.0003699
   15   0.0028110   0.0043893  -0.0012463   0.0019123  -0.0008734  -0.0021477
   16  -0.0021151  -0.0039338   0.0014817   0.0029147  -0.0004618  -0.0029532
   17   0.0015223   0.0024076  -0.0010685   0.0010681  -0.0048134  -0.0006332
   18   0.0018494   0.0039222  -0.0015023  -0.0016700   0.0009419   0.0045627
   19   0.0128811  -0.0548900   0.0106272  -0.0133871   0.0031377   0.0126376
   20  -0.0548900  -0.0045250   0.0424223  -0.0085988   0.0014062   0.0090261
   21   0.0106272   0.0424223   0.0379926  -0.0065997   0.0001725   0.0034114
   22  -0.0133871  -0.0085988  -0.0065997   0.2437058   0.0810881   0.1380361
   23   0.0031377   0.0014062   0.0001725   0.0810881   0.0816829   0.0445976
   24   0.0126376   0.0090261   0.0034114   0.1380361   0.0445976   0.1209168
 **********************************************************************
 **                                                                  **
 **                       VIBRATIONAL ANALYSIS                       **
 **                       --------------------                       **
 **                                                                  **
 **        VIBRATIONAL FREQUENCIES (CM**-1) AND NORMAL MODES         **
 **     FORCE CONSTANTS (mDYN/ANGSTROM) AND REDUCED MASSES (AMU)     **
 **                  INFRARED INTENSITIES (KM/MOL)                   **
 **                                                                  **
 **********************************************************************
 

 Mode:                 1                      2                      3
 Frequency:     -1517.41                 273.19                 338.18
 Force Cnst:      1.5341                 0.2136                 0.3092
 Red. Mass:       1.1308                 4.8579                 4.5894
 IR Active:          YES                    YES                    YES
 IR Intens:      205.312                 82.212                121.068
 Raman Active:       YES                    YES                    YES
               X      Y      Z        X      Y      Z        X      Y      Z
 Cl         0.004 -0.015 -0.008   -0.125 -0.099  0.098    0.129 -0.016 -0.127
 C         -0.052 -0.049  0.038   -0.017  0.162  0.055   -0.327  0.071  0.331
 C         -0.025  0.043  0.035    0.335  0.093 -0.302    0.035 -0.014 -0.038
 H          0.101 -0.031 -0.100    0.305  0.090 -0.283    0.006 -0.014 -0.014
 H          0.026 -0.041 -0.029   -0.165  0.185  0.207   -0.421  0.078  0.414
 H          0.020 -0.040 -0.035   -0.145  0.186  0.181   -0.375  0.078  0.386
 H          0.540  0.730 -0.341    0.270 -0.137 -0.321   -0.171 -0.235  0.059
 H          0.095 -0.029 -0.106    0.295  0.087 -0.245   -0.026 -0.017  0.049
 TransDip   0.331  0.019 -0.317    0.200  0.132 -0.163   -0.257 -0.034  0.239

 Mode:                 4                      5                      6
 Frequency:       386.71                 801.88                 845.57
 Force Cnst:      0.0921                 0.3929                 0.4299
 Red. Mass:       1.0457                 1.0371                 1.0205
 IR Active:          YES                    YES                    YES
 IR Intens:        3.582                  6.624                  0.110
 Raman Active:       YES                    YES                    YES
               X      Y      Z        X      Y      Z        X      Y      Z
 Cl         0.016 -0.003  0.019    0.001 -0.000  0.001   -0.000  0.000 -0.000
 C         -0.021  0.004 -0.033   -0.031  0.007 -0.034   -0.018  0.004 -0.017
 C         -0.005  0.000  0.002   -0.016  0.004 -0.016   -0.015  0.004 -0.017
 H          0.426 -0.032 -0.258   -0.050  0.211  0.193    0.290  0.322  0.103
 H         -0.305 -0.012  0.194   -0.209  0.297  0.469    0.436  0.289 -0.074
 H          0.221  0.031 -0.307    0.383 -0.338 -0.271   -0.161 -0.351  0.340
 H         -0.318  0.086 -0.330    0.261 -0.065  0.267   -0.162  0.041 -0.170
 H         -0.273 -0.010  0.427    0.137 -0.234 -0.100   -0.001 -0.397  0.207
 TransDip  -0.035  0.010 -0.049    0.058 -0.014  0.057   -0.007  0.003 -0.007

 Mode:                 7                      8                      9
 Frequency:       977.21                1093.30                1225.39
 Force Cnst:      0.6278                 0.8708                 1.0565
 Red. Mass:       1.1159                 1.2365                 1.1942
 IR Active:          YES                    YES                    YES
 IR Intens:       37.035                 20.068                  5.490
 Raman Active:       YES                    YES                    YES
               X      Y      Z        X      Y      Z        X      Y      Z
 Cl         0.000  0.009  0.002   -0.004  0.001  0.005   -0.003  0.001 -0.003
 C         -0.020 -0.045  0.008   -0.088  0.042  0.095    0.043 -0.009  0.044
 C          0.058 -0.012 -0.060    0.020 -0.032 -0.027   -0.078  0.019 -0.082
 H         -0.420  0.252  0.435    0.007 -0.086 -0.062    0.352  0.136 -0.198
 H          0.044 -0.043 -0.047    0.503  0.033 -0.453   -0.013 -0.190 -0.121
 H          0.041 -0.033 -0.060    0.489  0.037 -0.495   -0.068  0.207  0.037
 H          0.247 -0.039 -0.247   -0.072 -0.065  0.061    0.489 -0.120  0.510
 H         -0.383  0.248  0.465    0.042 -0.090 -0.033   -0.248 -0.169  0.313
 TransDip   0.095  0.162 -0.052   -0.104 -0.035  0.093    0.049 -0.013  0.055

 Mode:                10                     11                     12
 Frequency:      1250.24                1314.35                1444.85
 Force Cnst:      1.1408                 1.7516                 1.3368
 Red. Mass:       1.2387                 1.7209                 1.0869
 IR Active:          YES                    YES                    YES
 IR Intens:        1.632                 55.686                236.007
 Raman Active:       YES                    YES                    YES
               X      Y      Z        X      Y      Z        X      Y      Z
 Cl        -0.001  0.000 -0.001    0.000  0.005  0.001   -0.002 -0.008  0.000
 C         -0.079  0.021 -0.083   -0.055 -0.154  0.012   -0.008 -0.014  0.004
 C          0.059 -0.018  0.060    0.017  0.191  0.032    0.029 -0.062 -0.044
 H          0.079 -0.419 -0.299    0.299  0.294 -0.049    0.240  0.346  0.188
 H          0.211  0.330  0.022   -0.060 -0.367 -0.202   -0.013 -0.044 -0.024
 H         -0.079 -0.343  0.120    0.101 -0.424 -0.030    0.013 -0.051  0.000
 H          0.258 -0.060  0.266   -0.026 -0.452 -0.068   -0.329  0.512  0.441
 H         -0.198  0.446  0.188    0.126  0.345 -0.204   -0.082  0.427 -0.146
 TransDip   0.029 -0.004  0.028   -0.117 -0.198  0.066   -0.348  0.035  0.346

 Mode:                13                     14                     15
 Frequency:      1480.29                1611.80                3158.53
 Force Cnst:      1.4234                 2.6116                 6.1948
 Red. Mass:       1.1025                 1.7062                 1.0539
 IR Active:          YES                    YES                    YES
 IR Intens:       59.232                217.006                  2.812
 Raman Active:       YES                    YES                    YES
               X      Y      Z        X      Y      Z        X      Y      Z
 Cl         0.002  0.004 -0.001    0.001  0.005 -0.000    0.000  0.000 -0.000
 C         -0.010 -0.066 -0.004    0.030  0.175  0.014   -0.001  0.001  0.000
 C         -0.041 -0.041  0.027   -0.075 -0.159  0.033   -0.026 -0.058  0.011
 H          0.281  0.210  0.075    0.316  0.174  0.142   -0.268  0.430 -0.491
 H          0.285  0.388  0.262   -0.236 -0.214 -0.241   -0.024  0.032 -0.027
 H         -0.144  0.513 -0.180    0.168 -0.327  0.177    0.035  0.018  0.033
 H          0.142 -0.250 -0.197    0.324 -0.256 -0.375    0.009 -0.008 -0.011
 H         -0.008  0.278 -0.217   -0.078  0.275 -0.259    0.561  0.213  0.364
 TransDip   0.177  0.079 -0.152    0.341  0.129 -0.299    0.038  0.023 -0.031

 Mode:                16                     17                     18
 Frequency:      3195.55                3256.71                3301.09
 Force Cnst:      6.3694                 6.9896                 7.1894
 Red. Mass:       1.0587                 1.1185                 1.1198
 IR Active:          YES                    YES                    YES
 IR Intens:        4.359                  0.074                  4.106
 Raman Active:       YES                    YES                    YES
               X      Y      Z        X      Y      Z        X      Y      Z
 Cl        -0.000  0.000  0.000   -0.000  0.000 -0.000   -0.000  0.000 -0.000
 C         -0.013 -0.065 -0.010    0.016 -0.005  0.017    0.067 -0.020  0.069
 C          0.003  0.009 -0.000   -0.067  0.017 -0.069    0.016 -0.004  0.016
 H          0.015 -0.024  0.028    0.251 -0.420  0.477   -0.061  0.104 -0.112
 H         -0.339  0.441 -0.376   -0.087  0.115 -0.102   -0.351  0.477 -0.401
 H          0.495  0.261  0.477   -0.104 -0.052 -0.095   -0.440 -0.239 -0.416
 H         -0.010 -0.003  0.009   -0.007  0.002 -0.007    0.001 -0.000  0.002
 H         -0.040 -0.015 -0.025    0.551  0.214  0.347   -0.131 -0.055 -0.085
 TransDip  -0.046 -0.012  0.047   -0.007  0.001 -0.005   -0.047  0.011 -0.044

 STANDARD THERMODYNAMIC QUANTITIES AT   298.15 K  AND     1.00 ATM

   This Molecule has  1 Imaginary Frequencies
   Zero point vibrational energy:       37.104 kcal/mol

   Atom    1 Element Cl Has Mass   34.96885
   Atom    2 Element C  Has Mass   12.00000
   Atom    3 Element C  Has Mass   12.00000
   Atom    4 Element H  Has Mass    1.00783
   Atom    5 Element H  Has Mass    1.00783
   Atom    6 Element H  Has Mass    1.00783
   Atom    7 Element H  Has Mass    1.00783
   Atom    8 Element H  Has Mass    1.00783
   Molecular Mass:    64.008000 amu
   Principal axes and moments of inertia in amu*Bohr^2:
                             1           2           3
    Eigenvalues --       69.22501   427.47392   472.18184
          X               0.72239    -0.08545     0.68619
          Y               0.27972     0.94363    -0.17697
          Z              -0.63239     0.31978     0.70557
   Rotational Symmetry Number is   1
   The Molecule is an Asymmetric Top
   Translational Enthalpy:        0.889 kcal/mol
   Rotational Enthalpy:           0.889 kcal/mol
   Vibrational Enthalpy:         37.993 kcal/mol
   gas constant (RT):             0.592 kcal/mol
   Translational Entropy:        38.388  cal/mol.K
   Rotational Entropy:           24.150  cal/mol.K
   Vibrational Entropy:           4.487  cal/mol.K

   Total Enthalpy:               40.363 kcal/mol
   Total Entropy:                67.025  cal/mol.K
Archival summary:
1\1\centos77-c4\FREQ\ProcedureUnspecified\BasisUnspecified\l125\victor\SunNov819:56:392020SunNov819:56:392020\0\\#,FREQ,ProcedureUnspecified,BasisUnspecified,\\0,1\Cl\H,1,1.82453\C,2,1.26726,1,149.283\H,3,1.08159,2,106.049,1,-117.071,0\H,3,1.0816,2,106.024,1,116.893,0\C,3,1.38654,2,76.7701,1,-0.0513579,0\H,6,1.08018,3,121.651,2,91.1629,0\H,6,1.08021,3,121.681,2,-91.1572,0\\\@

 Total job time:  115.19s(wall), 945.01s(cpu) 
 Sun Nov  8 19:56:39 2020

        *************************************************************
        *                                                           *
        *  Thank you very much for using Q-Chem.  Have a nice day.  *
        *                                                           *
        *************************************************************


